LAMMPS Description

58086  atoms
0  bonds
0  angles
0  dihedrals
0  impropers

6  atom types
0  bond types
0  angle types
0  dihedral types
0  improper types

0.0 300.0 xlo xhi
0.0 300.0 ylo yhi
0.0 300.0 zlo zhi

Masses

1 12.0107  # C
2 14.0067  # N
3 15.9994  # O
4 32.065  # S
5 1.00794  # H
6 15.9994  # O

Atoms

1 2 223.638 141.662 129.584
2 1 223.286 141.712 131.038
3 1 221.897 142.312 131.213
4 3 221.696 143.490 130.821
5 1 224.290 142.565 131.814
6 2 220.993 141.564 131.840
7 1 219.594 141.994 132.083
8 1 219.536 143.131 133.104
9 3 220.305 143.131 134.100
10 1 218.755 140.823 132.611
11 1 218.606 139.601 131.708
12 1 217.748 138.528 132.373
13 1 218.013 139.982 130.363
14 2 218.549 144.009 132.905
15 1 218.196 145.123 133.811
16 1 216.777 144.929 134.329
17 3 215.977 144.214 133.684
18 1 218.311 146.424 133.024
19 1 219.670 146.632 132.376
20 1 219.516 147.179 130.964
21 1 220.539 147.528 133.252
22 2 216.485 145.574 135.451
23 1 215.207 145.408 136.177
24 1 214.548 146.755 136.441
25 3 215.202 147.805 136.323
26 1 215.443 144.685 137.497
27 1 216.005 143.305 137.318
28 1 217.356 143.123 137.061
29 1 215.179 142.201 137.387
30 1 217.875 141.856 136.880
31 1 215.706 140.933 137.223
32 1 217.044 140.764 136.952
33 2 213.268 146.697 136.802
34 1 212.505 147.751 137.518
35 1 212.895 147.673 138.995
36 3 212.243 146.900 139.757
37 1 210.996 147.570 137.275
38 1 210.186 148.857 137.235
39 3 210.553 149.822 136.562
40 2 209.044 148.863 137.909
41 2 213.948 148.399 139.363
42 1 214.530 148.388 140.727
43 1 213.438 148.717 141.749
44 3 212.748 149.755 141.587
45 1 215.709 149.370 140.790
46 2 213.273 147.841 142.742
47 1 212.322 148.022 143.867
48 1 213.054 147.825 145.200
49 3 213.556 146.710 145.446
50 1 211.130 147.055 143.803
51 3 210.690 146.910 142.457
52 1 209.957 147.506 144.647
53 2 213.112 148.878 146.012
54 1 213.837 148.867 147.312
55 1 213.297 147.766 148.230
56 3 214.108 146.905 148.686
57 1 213.752 150.237 147.997
58 2 211.995 147.784 148.491
59 1 211.355 146.867 149.459
60 1 209.844 146.860 149.272
61 3 209.305 147.716 148.542
62 1 211.741 147.221 150.876
63 3 211.819 148.629 151.039
64 2 209.199 145.897 149.922
65 1 207.718 145.772 149.991
66 1 207.298 145.412 151.419
67 3 207.976 144.586 152.073
68 1 207.169 144.749 148.974
69 1 207.451 145.179 147.540
70 1 207.669 143.329 149.226
71 2 206.191 146.010 151.868
72 1 205.595 145.770 153.200
73 1 204.292 144.996 153.044
74 3 203.468 145.342 152.196
75 1 205.360 147.072 153.972
76 1 206.549 147.515 154.813
77 2 204.134 143.990 153.893
78 1 202.885 143.204 154.011
79 1 202.425 143.215 155.463
80 3 203.271 143.256 156.380
81 1 203.086 141.795 153.444
82 1 203.803 140.807 154.334
83 1 205.119 141.020 154.718
84 1 203.177 139.635 154.749
85 1 205.782 140.104 155.522
86 1 203.844 138.713 155.544
87 1 205.141 138.959 155.937
88 2 201.100 143.108 155.632
89 1 200.367 143.216 156.909
90 1 199.665 141.899 157.209
91 3 199.638 141.034 156.318
92 1 199.368 144.377 156.852
93 3 198.348 144.053 155.902
94 1 200.021 145.694 156.486
95 2 199.130 141.750 158.418
96 1 198.457 140.499 158.843
97 1 197.414 140.097 157.796
98 3 197.352 138.913 157.372
99 1 197.799 140.620 160.219
100 1 196.802 139.511 160.454
101 1 195.479 139.648 160.049
102 1 197.206 138.298 160.994
103 1 194.572 138.613 160.225
104 1 196.296 137.264 161.173
105 1 194.981 137.424 160.788
106 2 196.590 141.063 157.397
107 1 195.640 140.907 156.267
108 1 196.339 141.264 154.953
109 3 196.151 142.367 154.447
110 1 194.387 141.741 156.474
111 4 194.741 143.422 157.049
112 2 197.171 140.327 154.467
113 1 197.768 140.308 153.095
114 1 197.819 138.835 152.656
115 3 198.913 138.348 152.306
116 1 199.177 140.934 153.039
117 1 199.323 142.340 152.468
118 3 199.635 143.283 153.197
119 2 199.135 142.510 151.171
120 2 196.675 138.155 152.772
121 1 196.514 136.702 152.494
122 1 197.679 136.223 151.626
123 3 198.529 135.441 152.130
124 1 195.160 136.403 151.837
125 2 197.708 136.706 150.383
126 1 198.721 136.344 149.363
127 1 199.739 137.477 149.204
128 3 199.360 138.619 149.003
129 1 198.003 135.921 148.070
130 3 198.927 135.202 147.253
131 1 197.415 137.078 147.291
132 2 201.013 137.108 149.265
133 1 202.192 138.007 149.281
134 1 202.902 137.909 147.933
135 3 203.181 136.798 147.444
136 1 203.134 137.646 150.450
137 1 204.415 138.475 150.466
138 1 202.417 137.746 151.793
139 2 203.288 139.062 147.421
140 1 203.889 139.218 146.072
141 1 205.184 140.010 146.187
142 3 205.150 141.189 146.599
143 1 202.902 139.915 145.120
144 1 203.592 140.426 143.859
145 1 201.730 139.005 144.785
146 2 206.276 139.399 145.755
147 1 207.612 140.045 145.660
148 1 207.900 140.335 144.192
149 3 207.978 139.431 143.370
150 1 208.691 139.167 146.321
151 1 208.217 138.661 147.690
152 1 210.010 139.929 146.414
153 1 208.657 137.265 148.028
154 2 208.040 141.624 143.833
155 1 208.143 142.029 142.432
156 1 209.518 141.800 141.803
157 3 210.498 142.087 142.439
158 1 207.885 143.536 142.527
159 1 208.534 143.914 143.840
160 1 208.214 142.753 144.757
161 2 209.541 141.301 140.573
162 1 210.780 141.146 139.790
163 1 210.422 141.316 138.327
164 3 209.761 140.443 137.785
165 1 211.384 139.775 140.054
166 4 213.064 139.536 139.427
167 2 210.821 142.431 137.739
168 1 210.456 142.807 136.356
169 1 211.710 143.024 135.521
170 3 212.519 143.853 135.890
171 1 209.558 144.041 136.374
172 1 208.161 143.728 136.824
173 1 207.163 143.461 135.899
174 1 207.861 143.663 138.172
175 1 205.873 143.167 136.313
176 1 206.574 143.355 138.587
177 1 205.584 143.103 137.659
178 2 211.905 142.193 134.527
179 1 213.007 142.347 133.544
180 1 212.572 143.286 132.417
181 3 211.585 143.007 131.705
182 1 213.473 140.981 133.013
183 1 214.659 141.102 132.077
184 1 213.807 140.041 134.154
185 2 213.271 144.400 132.282
186 1 212.905 145.481 131.319
187 1 213.329 145.130 129.889
188 3 212.617 145.584 128.972
189 1 213.431 146.854 131.771
190 3 214.793 147.022 131.388
191 1 213.313 147.076 133.263
192 2 214.413 144.376 129.726
193 1 214.950 144.039 128.389
194 1 215.033 142.521 128.195
195 3 216.103 142.027 127.752
196 1 216.288 144.751 128.162
197 1 217.340 144.404 129.196
198 3 217.037 143.741 130.180
199 2 218.573 144.841 128.991
200 2 213.915 141.825 128.396
201 1 213.787 140.371 128.097
202 1 213.627 140.124 126.592
203 3 212.877 140.862 125.950
204 1 212.581 139.786 128.833
205 1 212.613 138.285 128.904
206 4 213.284 137.719 130.474
207 1 211.789 137.236 131.339
208 2 214.351 139.154 126.056
209 1 214.430 138.926 124.588
210 1 213.941 137.525 124.214
211 3 213.788 137.263 123.020
212 1 215.861 139.184 124.101
213 1 216.233 140.665 124.039
214 1 217.601 140.990 123.430
215 3 218.026 140.278 122.461
216 3 218.220 141.995 123.860
217 2 213.710 136.679 125.201
218 1 213.302 135.283 125.006
219 1 212.024 135.236 124.196
220 3 211.237 136.197 124.274
221 1 213.087 134.650 126.354
222 2 211.814 134.128 123.483
223 1 210.563 133.879 122.724
224 1 209.956 132.526 123.089
225 3 208.890 132.207 122.549
226 1 210.886 134.097 121.244
227 1 211.396 135.514 120.986
228 1 212.070 135.737 119.649
229 3 213.217 135.358 119.433
230 2 211.368 136.390 118.735
231 2 210.553 131.816 124.046
232 1 209.908 130.640 124.665
233 1 210.539 130.389 126.050
234 3 211.738 130.709 126.315
235 1 209.951 129.413 123.739
236 1 208.829 128.416 123.984
237 3 208.715 127.824 125.054
238 2 208.000 128.197 122.978
239 2 209.704 129.873 126.943
240 1 210.114 129.568 128.332
241 1 211.281 128.581 128.328
242 3 212.100 128.674 129.254
243 1 208.886 129.179 129.159
244 3 208.163 128.195 128.423
245 1 207.974 130.352 129.428
246 2 211.421 127.768 127.276
247 1 212.544 126.821 127.074
248 1 213.887 127.525 127.285
249 3 214.872 126.892 127.802
250 1 212.552 126.273 125.636
251 3 212.697 127.367 124.713
252 1 211.320 125.449 125.306
253 2 213.920 128.801 126.886
254 1 215.154 129.622 126.870
255 1 215.473 130.158 128.261
256 3 216.616 130.572 128.483
257 1 214.999 130.788 125.892
258 1 214.754 130.342 124.458
259 1 214.453 131.486 123.503
260 3 214.661 132.662 123.902
261 3 214.001 131.200 122.372
262 2 214.525 130.018 129.186
263 1 214.488 130.777 130.458
264 1 214.631 129.870 131.685
265 3 214.129 128.735 131.703
266 1 213.183 131.578 130.575
267 1 213.298 132.662 131.630
268 1 212.768 132.168 129.236
269 2 215.332 130.389 132.679
270 1 215.479 129.745 134.006
271 1 215.379 130.805 135.085
272 3 216.130 131.764 135.054
273 1 216.841 129.065 134.115
274 1 217.040 128.144 135.289
275 1 216.673 126.810 135.211
276 1 217.676 128.583 136.437
277 1 216.883 125.935 136.260
278 1 217.909 127.717 137.494
279 1 217.511 126.394 137.405
280 3 217.742 125.560 138.458
281 2 214.498 130.610 136.058
282 1 214.354 131.553 137.195
283 1 214.660 130.865 138.513
284 3 213.993 129.936 138.840
285 1 212.989 132.246 137.265
286 1 212.942 133.190 138.450
287 1 212.697 133.012 135.999
288 2 215.590 131.428 139.270
289 1 215.946 130.982 140.637
290 1 215.726 132.104 141.647
291 3 216.371 133.161 141.501
292 1 217.407 130.518 140.696
293 1 217.879 129.974 142.037
294 1 219.369 130.136 142.245
295 1 220.193 129.259 141.322
296 2 221.640 129.570 141.422
297 2 214.787 131.873 142.554
298 1 214.514 132.699 143.743
299 1 215.296 132.161 144.931
300 3 215.112 130.975 145.301
301 1 213.026 132.744 144.070
302 1 212.276 133.800 143.336
303 1 211.439 133.623 142.279
304 1 212.272 135.202 143.618
305 2 210.922 134.820 141.869
306 1 211.410 135.809 142.676
307 1 212.911 136.004 144.566
308 1 211.170 137.182 142.658
309 1 212.685 137.364 144.534
310 1 211.820 137.942 143.600
311 2 216.114 133.038 145.496
312 1 216.972 132.737 146.669
313 1 216.521 133.564 147.869
314 3 216.187 134.724 147.721
315 1 218.440 133.072 146.369
316 1 219.041 132.412 145.131
317 1 220.512 132.734 144.903
318 1 221.444 132.152 145.952
319 2 221.462 130.667 145.950
320 2 216.584 132.953 149.049
321 1 216.441 133.642 150.358
322 1 217.479 133.120 151.354
323 3 217.466 131.908 151.599
324 1 215.017 133.427 150.878
325 1 214.758 134.017 152.240
326 1 214.538 135.379 152.385
327 1 214.736 133.210 153.372
328 1 214.316 135.922 153.640
329 1 214.525 133.761 154.625
330 1 214.312 135.112 154.754
331 2 218.311 134.017 151.880
332 1 219.254 133.730 152.978
333 1 220.259 132.673 152.540
334 3 220.610 131.825 153.380
335 1 218.488 133.259 154.222
336 2 220.656 132.698 151.266
337 1 221.678 131.793 150.729
338 1 221.126 130.453 150.297
339 3 221.902 129.628 149.797
340 2 219.810 130.270 150.406
341 1 219.143 129.028 149.963
342 1 218.435 129.265 148.636
343 3 218.055 130.393 148.337
344 1 218.080 128.532 150.948
345 1 218.301 128.906 152.407
346 1 217.000 128.783 153.197
347 2 216.301 127.533 152.912
348 1 215.041 127.247 153.243
349 2 214.282 128.121 153.885
350 2 214.539 126.065 152.922
351 2 218.293 128.205 147.843
352 1 217.435 128.196 146.636
353 1 216.021 127.810 147.062
354 3 215.762 126.621 147.335
355 1 217.988 127.261 145.554
356 1 219.300 127.720 144.929
357 3 219.917 128.667 145.473
358 3 219.702 127.117 143.896
359 2 215.135 128.791 147.099
360 1 213.768 128.638 147.672
361 1 212.707 128.500 146.574
362 3 211.600 127.976 146.879
363 1 213.492 129.768 148.695
364 1 213.455 131.173 148.071
365 1 214.523 129.693 149.813
366 1 212.109 131.599 147.561
367 2 213.015 128.886 145.343
368 1 212.118 128.561 144.209
369 1 212.881 128.491 142.898
370 3 213.638 129.481 142.633
371 1 211.021 129.630 144.113
372 1 210.087 129.430 142.950
373 1 208.949 128.656 143.094
374 1 210.363 129.958 141.697
375 1 208.089 128.428 142.033
376 1 209.519 129.729 140.619
377 1 208.372 128.966 140.789
378 3 207.517 128.733 139.748
379 2 212.698 127.442 142.117
380 1 213.333 127.313 140.784
381 1 212.315 126.908 139.730
382 3 211.670 125.899 139.909
383 1 214.486 126.301 140.820
384 3 213.982 125.053 141.304
385 1 215.641 126.771 141.679
386 2 212.251 127.681 138.646
387 1 211.517 127.344 137.422
388 1 212.521 127.070 136.308
389 3 213.221 127.997 135.830
390 1 210.631 128.510 136.986
391 1 209.829 128.195 135.748
392 1 209.069 127.029 135.691
393 1 209.853 129.028 134.637
394 1 208.331 126.720 134.562
395 1 209.114 128.707 133.508
396 1 208.353 127.559 133.473
397 2 212.573 125.813 135.888
398 1 213.283 125.379 134.659
399 1 212.294 125.435 133.501
400 3 211.321 124.667 133.502
401 1 213.876 123.975 134.801
402 1 214.970 123.653 133.800
403 3 215.039 124.316 132.752
404 3 215.748 122.733 134.080
405 2 212.534 126.348 132.569
406 1 211.682 126.572 131.393
407 1 211.605 125.353 130.496
408 3 210.487 125.033 129.946
409 2 212.752 124.710 130.299
410 1 212.952 123.598 129.334
411 1 212.055 122.416 129.677
412 3 211.563 121.733 128.752
413 1 214.389 123.157 129.343
414 2 211.873 122.172 130.981
415 1 211.066 121.048 131.491
416 1 209.790 121.569 132.154
417 3 209.046 120.766 132.723
418 1 211.862 120.265 132.546
419 1 213.275 119.818 132.184
420 1 214.304 120.589 132.994
421 1 213.436 118.321 132.432
422 2 209.607 122.873 132.195
423 1 208.693 123.576 133.133
424 1 208.454 122.766 134.404
425 3 207.295 122.477 134.741
426 1 207.430 124.071 132.419
427 1 206.399 123.013 132.105
428 3 206.707 121.827 131.984
429 2 205.163 123.458 131.958
430 2 209.547 122.542 135.123
431 1 209.606 121.927 136.464
432 1 209.732 123.043 137.502
433 3 210.844 123.576 137.656
434 1 210.814 120.975 136.542
435 1 211.135 120.356 137.911
436 1 212.620 120.064 138.176
437 2 208.640 123.376 138.177
438 1 208.661 124.246 139.364
439 1 209.030 123.410 140.587
440 3 208.369 122.384 140.805
441 1 207.348 124.955 139.530
442 3 207.512 126.124 140.316
443 2 210.088 123.810 141.289
444 1 210.657 123.043 142.423
445 1 210.953 124.002 143.577
446 3 211.660 125.029 143.408
447 1 211.867 122.242 141.925
448 3 211.355 121.074 141.280
449 1 212.832 121.832 143.014
450 2 210.483 123.606 144.761
451 1 210.520 124.422 145.996
452 1 210.875 123.523 147.166
453 3 210.543 122.338 147.193
454 1 209.174 125.119 146.236
455 1 209.052 126.371 145.392
456 1 207.996 124.178 146.006
457 2 211.509 124.087 148.212
458 1 211.726 123.376 149.469
459 1 210.419 123.171 150.229
460 3 209.425 123.818 149.914
461 1 212.658 124.293 150.284
462 1 213.167 125.307 149.295
463 1 212.073 125.444 148.259
464 2 210.491 122.338 151.260
465 1 209.343 121.964 152.113
466 1 208.925 123.154 152.964
467 3 207.769 123.163 153.407
468 1 209.656 120.716 152.957
469 3 210.982 120.850 153.471
470 1 209.549 119.425 152.175
471 2 209.827 124.128 153.115
472 1 209.655 125.329 153.953
473 1 208.971 126.457 153.190
474 3 208.747 127.502 153.801
475 1 210.996 125.918 154.399
476 1 211.806 125.071 155.360
477 3 211.660 123.833 155.326
478 3 212.606 125.663 156.106
479 2 208.756 126.264 151.899
480 1 208.140 127.273 151.017
481 1 207.156 126.632 150.051
482 3 206.999 127.148 148.946
483 1 209.233 128.010 150.235
484 1 209.777 129.251 150.890
485 1 209.187 130.484 150.668
486 1 210.888 129.192 151.714
487 1 209.684 131.629 151.268
488 1 211.381 130.338 152.320
489 1 210.780 131.555 152.096
490 2 206.557 125.510 150.451
491 1 205.718 124.627 149.598
492 1 204.645 125.386 148.808
493 3 204.108 124.823 147.835
494 1 205.093 123.546 150.445
495 3 204.488 124.099 151.608
496 2 204.362 126.625 149.194
497 1 203.239 127.436 148.666
498 1 203.687 128.354 147.532
499 3 202.815 128.864 146.803
500 1 202.636 128.241 149.776
501 3 203.050 127.710 151.024
502 2 204.999 128.563 147.428
503 1 205.625 129.524 146.491
504 1 205.374 129.157 145.023
505 3 205.311 127.967 144.670
506 1 207.097 129.647 146.787
507 2 205.230 130.197 144.202
508 1 204.959 130.082 142.741
509 1 205.329 131.411 142.056
510 3 205.303 132.469 142.697
511 1 203.476 129.747 142.492
512 1 202.464 130.756 143.045
513 1 201.334 131.199 142.109
514 2 205.602 131.364 140.747
515 1 205.467 132.540 139.841
516 1 204.489 132.173 138.732
517 3 204.424 130.991 138.321
518 1 206.793 133.047 139.235
519 1 207.221 132.272 137.985
520 1 207.883 133.087 140.279
521 1 207.924 133.132 136.972
522 2 203.826 133.188 138.184
523 1 202.905 133.013 137.037
524 1 203.733 132.837 135.771
525 3 204.251 133.858 135.231
526 1 201.939 134.194 136.916
527 1 200.742 133.906 136.024
528 2 203.790 131.591 135.293
529 1 204.546 131.189 134.071
530 1 204.109 132.091 132.915
531 3 204.959 132.583 132.134
532 1 204.302 129.702 133.731
533 1 204.982 129.293 132.432
534 1 204.715 128.758 134.853
535 2 202.789 132.240 132.792
536 1 202.107 133.019 131.722
537 1 202.838 134.330 131.393
538 3 203.015 134.673 130.187
539 1 200.682 133.306 132.113
540 3 200.633 134.183 133.226
541 2 203.266 135.030 132.445
542 1 203.776 136.418 132.353
543 1 205.304 136.460 132.231
544 3 205.875 137.531 132.062
545 1 203.285 137.227 133.554
546 1 201.773 137.280 133.695
547 1 201.122 137.774 132.431
548 3 201.573 138.747 131.830
549 2 200.070 137.087 132.009
550 2 205.926 135.282 132.300
551 1 207.402 135.156 132.428
552 1 208.083 135.834 131.245
553 3 208.956 136.700 131.503
554 1 207.810 133.682 132.512
555 1 209.309 133.430 132.641
556 1 209.921 134.309 133.724
557 1 209.569 131.968 132.909
558 2 207.635 135.515 130.027
559 1 208.270 135.986 128.769
560 1 208.089 137.497 128.597
561 3 208.875 138.104 127.807
562 1 207.705 135.185 127.584
563 1 208.251 133.760 127.433
564 1 207.266 132.869 126.699
565 1 209.594 133.718 126.723
566 2 207.127 138.082 129.323
567 1 206.884 139.545 129.295
568 1 207.890 140.273 130.178
569 3 208.015 141.506 130.000
570 1 205.462 139.890 129.754
571 1 204.475 140.151 128.623
572 1 203.044 139.718 128.910
573 1 202.167 139.860 127.685
574 2 201.380 138.636 127.404
575 2 208.548 139.561 131.083
576 1 209.501 140.140 132.027
577 1 209.065 139.999 133.468
578 3 209.828 140.419 134.355
579 2 207.885 139.419 133.695
580 1 207.292 139.256 135.040
581 1 207.762 137.955 135.666
582 3 207.150 136.942 135.400
583 1 205.765 139.285 134.966
584 1 205.061 139.302 136.313
585 3 205.707 139.666 137.308
586 3 203.862 138.977 136.352
587 2 208.751 138.042 136.563
588 1 209.359 136.910 137.273
589 1 209.036 137.039 138.753
590 3 209.765 136.466 139.584
591 1 210.851 136.920 137.032
592 2 207.951 137.741 139.059
593 1 207.550 138.068 140.445
594 1 207.109 136.798 141.176
595 3 206.435 135.903 140.557
596 1 206.462 139.108 140.472
597 3 206.878 140.292 139.820
598 2 207.437 136.747 142.464
599 1 207.186 135.583 143.346
600 1 205.875 135.752 144.103
601 3 205.665 136.811 144.666
602 1 208.347 135.436 144.333
603 1 208.260 134.261 145.308
604 1 207.932 132.945 144.607
605 1 209.572 134.125 146.067
606 2 205.083 134.672 144.184
607 1 203.818 134.610 144.953
608 1 203.940 133.545 146.042
609 3 204.397 132.446 145.760
610 1 202.640 134.288 144.021
611 1 202.324 135.321 142.933
612 1 201.155 134.945 142.027
613 2 203.542 133.875 147.267
614 1 203.498 132.893 148.379
615 1 202.371 133.260 149.342
616 3 201.971 134.430 149.370
617 1 204.824 132.852 149.155
618 1 205.385 134.240 149.528
619 4 206.906 134.250 150.573
620 1 208.185 134.019 149.341
621 2 201.891 132.278 150.099
622 1 200.837 132.498 151.120
623 1 201.431 133.262 152.303
624 3 202.643 133.383 152.381
625 1 200.197 131.180 151.564
626 1 201.062 130.330 152.481
627 3 202.283 130.596 152.571
628 3 200.505 129.411 153.104
629 2 200.565 133.752 153.182
630 1 200.921 134.645 154.308
631 1 201.816 133.906 155.306
632 3 202.761 134.518 155.832
633 1 199.644 135.172 154.973
634 2 201.511 132.633 155.547
635 1 202.102 131.824 156.645
636 1 203.585 131.560 156.395
637 3 204.377 131.522 157.386
638 1 201.339 130.537 156.850
639 3 200.971 129.961 155.606
640 2 203.935 131.360 155.129
641 1 205.331 131.156 154.679
642 1 206.086 132.478 154.733
643 3 207.208 132.501 155.303
644 1 205.407 130.584 153.265
645 1 205.259 129.076 153.217
646 3 205.103 128.449 154.294
647 3 205.306 128.543 152.100
648 2 205.444 133.547 154.273
649 1 206.103 134.872 154.152
650 1 206.493 135.415 155.526
651 3 207.638 135.878 155.714
652 1 205.202 135.827 153.408
653 2 205.538 135.371 156.452
654 1 205.693 135.928 157.828
655 1 206.991 135.428 158.480
656 3 207.726 136.255 159.125
657 1 204.450 135.644 158.698
658 1 204.231 134.162 158.937
659 1 204.504 136.395 160.022
660 2 207.274 134.137 158.311
661 1 208.398 133.445 158.978
662 1 209.711 133.727 158.257
663 3 210.785 133.501 158.827
664 1 208.149 131.954 159.099
665 3 207.334 131.469 158.047
666 2 209.608 134.278 157.052
667 1 210.758 134.532 156.157
668 1 210.787 135.972 155.638
669 3 210.603 136.183 154.420
670 1 210.701 133.536 154.990
671 1 210.815 132.097 155.383
672 2 209.738 131.228 155.321
673 1 211.871 131.359 155.802
674 1 210.121 130.026 155.698
675 2 211.426 130.077 155.999
676 2 211.039 136.923 156.524
677 1 211.262 138.339 156.162
678 1 212.760 138.596 156.038
679 3 213.501 138.378 157.018
680 1 210.597 139.252 157.197
681 3 211.333 139.089 158.409
682 1 209.142 138.915 157.439
683 2 213.162 139.104 154.880
684 1 214.586 139.380 154.612
685 1 214.812 139.888 153.208
686 3 213.875 140.386 152.593
687 2 216.034 139.684 152.717
688 1 216.493 140.130 151.385
689 1 216.375 138.953 150.420
690 3 217.317 138.137 150.339
691 1 217.901 140.736 151.473
692 1 217.892 142.143 152.034
693 3 217.057 142.950 151.640
694 2 218.799 142.446 152.952
695 2 215.251 138.886 149.707
696 1 214.991 137.963 148.575
697 1 215.802 138.394 147.352
698 3 215.937 139.594 147.101
699 1 213.495 137.959 148.240
700 1 212.653 137.204 149.231
701 1 212.111 137.828 150.339
702 1 212.425 135.847 149.076
703 1 211.356 137.123 151.262
704 1 211.676 135.128 149.991
705 1 211.142 135.769 151.087
706 3 210.399 135.057 151.978
707 2 216.340 137.408 146.644
708 1 217.111 137.585 145.392
709 1 216.448 136.823 144.244
710 3 216.106 135.651 144.390
711 1 218.567 137.157 145.585
712 3 218.887 137.418 146.951
713 1 219.538 137.896 144.695
714 2 216.245 137.532 143.150
715 1 215.670 137.010 141.888
716 1 216.790 136.930 140.851
717 3 217.388 137.950 140.518
718 1 214.566 137.990 141.520
719 4 213.585 137.627 140.035
720 2 217.070 135.724 140.379
721 1 218.034 135.434 139.296
722 1 217.284 134.921 138.074
723 3 216.698 133.863 138.177
724 1 219.083 134.414 139.763
725 1 220.201 134.985 140.620
726 1 221.227 133.969 141.110
727 3 221.220 132.818 140.613
728 3 222.052 134.332 141.982
729 2 217.375 135.601 136.952
730 1 216.708 135.233 135.687
731 1 217.798 135.017 134.645
732 3 218.671 135.874 134.478
733 1 215.776 136.376 135.244
734 1 215.233 136.160 133.842
735 1 214.655 136.607 136.241
736 2 217.687 133.925 133.898
737 1 218.703 133.541 132.897
738 1 218.034 133.209 131.563
739 3 217.138 132.328 131.503
740 1 219.564 132.440 133.513
741 3 219.669 132.744 134.911
742 1 220.917 132.330 132.845
743 2 218.537 133.840 130.503
744 1 218.181 133.544 129.098
745 1 219.289 132.677 128.508
746 3 220.052 132.010 129.269
747 1 218.053 134.867 128.338
748 1 216.646 135.235 127.930
749 1 216.607 136.473 127.043
750 3 216.015 137.508 127.479
751 3 217.168 136.397 125.912
752 2 219.378 132.673 127.182
753 1 220.408 131.900 126.446
754 1 221.807 132.445 126.723
755 3 222.686 131.680 127.189
756 1 220.094 131.943 124.947
757 1 218.884 131.112 124.530
758 1 218.527 131.361 123.078
759 1 219.131 129.632 124.764
760 2 222.014 133.733 126.444
761 1 223.364 134.340 126.490
762 1 223.406 135.568 127.390
763 3 224.473 136.212 127.437
764 1 223.838 134.760 125.099
765 3 223.003 135.829 124.637
766 1 223.822 133.602 124.127
767 2 222.283 135.968 127.975
768 1 222.265 137.055 128.964
769 1 221.579 136.556 130.221
770 3 220.613 135.784 130.159
771 1 221.584 138.313 128.428
772 1 222.192 138.830 127.132
773 1 221.335 139.896 126.497
774 2 219.932 139.520 126.557
775 1 218.924 140.349 126.823
776 2 219.126 141.636 127.064
777 2 217.697 139.874 126.853
778 2 222.072 137.060 131.343
779 1 221.536 136.776 132.694
780 1 221.409 138.079 133.462
781 3 222.073 139.074 133.071
782 1 222.462 135.836 133.471
783 1 223.918 136.274 133.519
784 1 224.815 135.786 132.385
785 3 224.288 135.296 131.353
786 3 226.054 135.902 132.533
787 2 220.641 138.066 134.551
788 1 220.598 139.178 135.512
789 1 220.001 138.754 136.832
790 3 219.309 137.723 136.914
791 2 220.253 139.538 137.870
792 1 219.678 139.279 139.203
793 1 219.428 140.598 139.902
794 3 220.140 141.573 139.655
795 1 220.619 138.418 140.027
796 1 221.967 139.070 140.252
797 1 222.958 138.158 140.948
798 3 223.527 137.269 140.272
799 3 223.147 138.330 142.173
800 2 218.473 140.618 140.809
801 1 218.118 141.814 141.597
802 1 217.621 141.383 142.974
803 3 217.160 140.259 143.138
804 1 217.103 142.690 140.849
805 3 217.100 143.949 141.524
806 1 215.709 142.096 140.806
807 2 217.670 142.316 143.928
808 1 217.453 142.052 145.379
809 1 216.307 142.931 145.879
810 3 216.335 144.152 145.668
811 1 218.752 142.295 146.185
812 1 219.989 141.724 145.484
813 1 218.629 141.741 147.597
814 1 221.220 142.593 145.584
815 2 215.338 142.334 146.564
816 1 214.178 143.033 147.187
817 1 214.057 142.562 148.631
818 3 213.782 141.386 148.848
819 1 212.867 142.745 146.410
820 1 212.989 142.976 144.901
821 1 211.704 143.540 146.980
822 1 213.038 141.703 144.087
823 2 214.101 143.501 149.577
824 1 213.870 143.242 151.023
825 1 212.370 143.116 151.299
826 3 211.601 144.062 150.968
827 1 214.454 144.372 151.880
828 1 214.176 144.230 153.366
829 2 211.978 142.004 151.908
830 1 210.600 141.809 152.417
831 1 210.517 142.249 153.877
832 3 211.149 141.630 154.729
833 1 210.181 140.343 152.270
834 1 208.747 140.036 152.708
835 1 207.745 140.681 151.770
836 1 208.502 138.542 152.811
837 2 209.716 143.291 154.100
838 1 209.453 143.932 155.411
839 1 208.026 143.635 155.870
840 3 207.117 143.553 155.046
841 1 209.668 145.452 155.328
842 1 211.094 145.930 155.590
843 1 211.243 147.433 155.717
844 2 207.850 143.506 157.184
845 1 206.540 143.294 157.835
846 1 206.290 144.437 158.808
847 3 207.218 144.825 159.546
848 1 206.539 141.959 158.587
849 1 205.243 141.647 159.287
850 1 204.120 141.302 158.558
851 1 205.125 141.712 160.665
852 1 202.916 141.015 159.173
853 1 203.926 141.427 161.297
854 1 202.811 141.087 160.549
855 3 201.612 140.803 161.143
856 2 205.062 144.938 158.820
857 1 204.567 145.948 159.785
858 1 203.234 145.478 160.354
859 3 202.380 145.004 159.573
860 1 204.389 147.315 159.110
861 1 203.207 147.399 158.154
862 1 203.299 148.614 157.265
863 2 203.250 149.831 158.057
864 1 203.427 151.055 157.576
865 2 203.363 152.097 158.391
866 2 203.662 151.240 156.287
867 2 203.021 145.714 161.656
868 1 201.696 145.535 162.322
869 1 201.074 146.891 162.659
870 3 201.626 147.616 163.535
871 1 201.778 144.670 163.595
872 1 200.389 144.266 164.079
873 1 202.640 143.442 163.390
874 2 199.950 147.170 161.997
875 1 198.914 148.158 162.389
876 1 197.591 147.407 162.542
877 3 196.839 147.325 161.549
878 1 198.826 149.281 161.329
879 1 197.745 150.302 161.653
880 1 200.171 149.968 161.116
881 2 197.362 146.855 163.733
882 1 196.338 145.821 163.968
883 1 194.950 146.448 163.853
884 3 194.687 147.424 164.562
885 1 196.530 145.123 165.297
886 3 196.815 146.040 166.346
887 2 194.129 145.870 162.970
888 1 192.798 146.330 162.485
889 1 192.770 147.808 162.085
890 3 192.734 148.082 160.866
891 1 191.680 145.966 163.473
892 1 190.324 145.954 162.834
893 1 190.037 146.045 161.499
894 1 189.058 145.801 163.499
895 2 188.686 145.977 161.293
896 1 188.058 145.831 162.500
897 1 188.671 145.651 164.834
898 1 186.703 145.715 162.800
899 1 187.330 145.540 165.131
900 1 186.362 145.571 164.126
901 2 192.665 148.711 163.057
902 1 192.570 150.166 162.830
903 1 193.911 150.838 163.133
904 3 194.760 150.327 163.920
905 1 191.456 150.788 163.681
906 1 190.035 150.570 163.208
907 1 189.476 151.382 162.230
908 1 189.231 149.593 163.782
909 1 188.161 151.198 161.819
910 1 187.917 149.412 163.374
911 1 187.383 150.215 162.394
912 2 194.099 151.966 162.467
913 1 195.285 152.836 162.605
914 1 195.280 153.481 163.986
915 3 194.232 153.851 164.509
916 1 195.338 153.856 161.495
917 3 194.033 154.295 161.138
918 2 196.462 153.576 164.639
919 1 196.563 154.083 166.017
920 1 195.578 155.160 166.492
921 3 195.120 155.108 167.639
922 1 197.989 154.659 166.003
923 1 198.769 153.676 165.155
924 1 197.784 153.205 164.101
925 2 195.371 156.162 165.640
926 1 194.496 157.327 165.906
927 1 193.027 156.927 165.923
928 3 192.268 157.536 166.699
929 1 194.661 158.435 164.860
930 1 195.792 159.394 165.160
931 3 196.829 159.000 165.686
932 2 195.611 160.658 164.813
933 2 192.682 155.955 165.075
934 1 191.279 155.562 164.826
935 1 190.770 154.713 165.981
936 3 189.641 154.977 166.454
937 1 191.139 154.769 163.527
938 1 191.203 155.625 162.281
939 1 190.707 154.897 161.046
940 3 191.507 154.703 160.112
941 3 189.524 154.515 161.031
942 2 191.615 153.789 166.436
943 1 191.283 152.818 167.509
944 1 191.545 153.420 168.886
945 3 191.318 152.716 169.891
946 1 192.052 151.502 167.353
947 1 193.549 151.695 167.242
948 3 194.152 152.408 168.042
949 2 194.160 151.065 166.252
950 2 191.978 154.675 168.929
951 1 192.131 155.459 170.182
952 1 190.947 156.425 170.288
953 3 190.718 156.966 171.381
954 1 193.527 156.141 170.222
955 1 194.218 156.024 171.589
956 1 193.475 157.587 169.741
957 1 195.184 154.852 171.719
958 2 190.241 156.665 169.192
959 1 189.011 157.482 169.181
960 1 187.795 156.678 169.615
961 3 187.075 157.123 170.554
962 1 188.774 157.956 167.747
963 1 188.994 159.439 167.493
964 1 188.892 159.732 166.005
965 1 187.991 160.269 168.278
966 2 187.522 155.587 168.895
967 1 186.228 154.850 169.073
968 1 186.235 154.120 170.412
969 3 185.288 153.363 170.679
970 1 185.884 153.914 167.889
971 1 187.034 153.010 167.438
972 1 185.353 154.728 166.725
973 1 187.652 152.182 168.533
974 2 187.256 154.368 171.234
975 1 187.322 153.798 172.608
976 1 187.045 154.893 173.626
977 3 186.441 154.589 174.642
978 1 188.669 153.107 172.904
979 1 189.744 154.085 173.372
980 1 188.495 151.982 173.914
981 2 187.474 156.119 173.340
982 1 187.454 157.230 174.324
983 1 186.118 157.959 174.231
984 3 185.685 158.518 175.251
985 1 188.654 158.186 174.133
986 1 189.045 158.873 175.448
987 1 188.392 159.200 173.027
988 1 190.361 159.624 175.396
989 2 185.523 158.028 173.044
990 1 184.223 158.722 172.875
991 1 183.086 157.979 173.581
992 3 182.244 158.549 174.270