LAMMPS Description

30000  atoms
0  bonds
0  angles
0  dihedrals
0  impropers

2  atom types
0  bond types
0  angle types
0  dihedral types
0  improper types

0.0 300.0 xlo xhi
0.0 300.0 ylo yhi
0.0 300.0 zlo zhi

Masses

1 1.00794  # H
2 15.9994  # O

Atoms

1 1 42.761 65.321 232.025
2 1 43.375 65.814 230.594
3 2 42.757 66.052 231.343
4 1 95.486 134.004 294.367
5 1 96.753 135.034 294.415
6 2 95.756 134.967 294.373
7 1 72.787 198.693 189.613
8 1 73.231 197.384 190.483
9 2 73.428 197.927 189.667
10 1 134.141 49.826 89.569
11 1 134.741 51.024 90.504
12 2 134.037 50.785 89.836
13 1 147.412 20.085 34.073
14 1 147.224 19.398 32.603
15 2 146.766 19.909 33.329
16 1 54.699 262.992 158.193
17 1 55.560 262.138 157.099
18 2 55.149 263.026 157.300
19 1 12.227 121.298 46.131
20 1 11.826 121.908 47.592
21 2 12.259 121.141 47.118
22 1 220.597 105.268 69.892
23 1 220.669 106.764 70.542
24 2 221.175 106.073 70.028
25 1 285.828 296.562 28.117
26 1 286.010 298.041 28.786
27 2 285.978 297.059 28.972
28 1 128.899 242.032 12.252
29 1 127.854 241.021 11.508
30 2 128.698 241.075 12.041
31 1 245.955 128.958 237.139
32 1 244.393 128.556 237.393
33 2 245.319 128.507 237.766
34 1 58.515 196.673 140.570
35 1 59.762 197.039 141.558
36 2 58.769 196.944 141.499
37 1 280.784 244.674 151.321
38 1 279.823 245.314 150.166
39 2 280.106 244.467 150.615
40 1 133.440 113.338 168.681
41 1 132.086 112.432 168.792
42 2 132.690 113.061 169.281
43 1 277.313 275.226 299.965
44 1 278.939 275.083 299.933
45 2 278.075 274.581 299.907
46 1 86.011 130.905 61.543
47 1 86.007 132.486 61.953
48 2 85.884 131.837 61.203
49 1 265.405 103.781 40.134
50 1 266.481 103.077 41.141
51 2 266.377 103.630 40.315
52 1 135.901 91.742 264.733
53 1 136.902 90.453 264.673
54 2 136.857 91.448 264.760
55 1 113.062 157.758 174.831
56 1 111.436 157.655 174.938
57 2 112.209 158.281 174.843
58 1 6.322 255.127 250.311
59 1 6.697 253.724 251.056
60 2 6.144 254.143 250.337
61 1 154.941 23.750 149.314
62 1 155.858 23.054 148.155
63 2 154.924 23.273 148.434
64 1 81.379 211.572 139.369
65 1 80.439 212.689 138.639
66 2 81.362 212.486 138.963
67 1 176.221 189.468 51.439
68 1 174.984 190.503 51.696
69 2 175.945 190.314 51.895
70 1 67.692 116.172 25.621
71 1 68.449 114.899 24.933
72 2 67.593 115.217 25.338
73 1 285.300 294.007 120.582
74 1 285.458 294.105 122.205
75 2 285.237 294.615 121.374
76 1 38.251 66.175 37.223
77 1 37.140 64.984 37.349
78 2 38.118 65.189 37.326
79 1 29.688 144.325 285.817
80 1 29.246 145.541 284.821
81 2 29.991 145.169 285.374
82 1 147.628 72.805 273.956
83 1 147.088 72.080 275.316
84 2 147.288 72.959 274.884
85 1 138.877 200.863 10.907
86 1 137.478 200.919 11.746
87 2 138.342 200.430 11.632
88 1 143.606 194.308 154.730
89 1 143.541 193.198 155.926
90 2 143.479 193.338 154.938
91 1 96.182 181.278 187.795
92 1 96.461 179.977 188.742
93 2 96.829 180.545 188.006
94 1 48.015 152.145 200.023
95 1 47.781 153.664 199.470
96 2 47.446 152.723 199.438
97 1 295.621 284.433 93.332
98 1 294.068 284.930 93.409
99 2 294.682 284.150 93.526
100 1 30.972 294.113 299.660
101 1 31.367 295.627 299.193
102 2 30.910 294.782 298.919
103 1 200.299 152.654 234.889
104 1 201.838 152.110 234.835
105 2 200.879 151.859 234.709
106 1 163.710 135.100 64.037
107 1 163.329 136.218 65.165
108 2 162.958 135.579 64.492
109 1 23.559 185.754 269.981
110 1 23.326 186.889 271.132
111 2 23.621 186.730 270.190
112 1 290.247 234.202 142.332
113 1 290.630 235.761 142.032
114 2 289.888 235.134 142.265
115 1 24.473 190.618 106.492
116 1 25.174 189.211 106.936
117 2 24.459 189.625 106.373
118 1 112.030 164.076 286.737
119 1 111.759 162.558 286.201
120 2 112.140 163.451 285.964
121 1 137.460 142.211 121.697
122 1 138.747 142.547 122.644
123 2 137.953 142.936 122.178
124 1 174.442 174.873 202.246
125 1 172.895 175.389 202.312
126 2 173.489 174.586 202.339
127 1 227.027 219.881 258.017
128 1 225.904 219.266 257.003
129 2 226.438 220.079 257.233
130 1 275.553 86.870 45.104
131 1 274.468 86.783 43.887
132 2 274.631 87.125 44.812
133 1 258.823 47.921 123.775
134 1 259.822 47.312 124.915
135 2 258.945 47.194 124.451
136 1 180.417 273.306 197.234
137 1 180.462 274.920 196.992
138 2 180.290 274.200 197.663
139 1 257.173 83.325 102.664
140 1 258.222 84.570 102.531
141 2 258.045 83.621 102.273
142 1 132.383 194.907 254.233
143 1 131.758 195.729 252.967
144 2 131.860 195.716 253.962
145 1 199.181 109.371 257.110
146 1 200.809 109.462 257.196
147 2 200.024 108.845 257.229
148 1 162.551 121.358 77.253
149 1 163.151 119.987 77.908
150 2 162.452 120.364 77.300
151 1 144.996 288.664 110.889
152 1 144.231 290.058 110.519
153 2 144.688 289.546 111.245
154 1 93.807 58.102 103.294
155 1 92.431 58.564 102.545
156 2 92.988 57.780 102.819
157 1 210.513 117.306 264.250
158 1 209.961 116.418 265.504
159 2 210.541 116.408 264.690
160 1 195.595 180.867 28.528
161 1 195.201 182.445 28.386
162 2 194.841 181.513 28.409
163 1 57.881 237.381 190.713
164 1 56.889 236.258 190.065
165 2 57.818 236.626 190.061
166 1 198.777 134.643 267.544
167 1 200.338 135.122 267.572
168 2 199.389 135.434 267.550
169 1 171.540 76.920 15.535
170 1 172.080 77.658 16.888
171 2 172.196 76.867 16.289
172 1 95.231 176.645 257.075
173 1 94.662 175.605 255.952
174 2 94.902 176.558 256.135
175 1 51.791 258.663 0.086
176 1 50.650 257.784 0.857
177 2 51.631 257.957 0.776
178 1 235.240 223.326 179.752
179 1 235.351 222.794 181.292
180 2 234.770 222.826 180.479
181 1 44.055 297.030 216.093
182 1 42.516 296.502 216.234
183 2 43.140 297.258 216.426
184 1 131.954 95.559 107.644
185 1 133.148 96.238 106.760
186 2 132.907 95.471 107.354
187 1 283.129 187.573 109.709
188 1 284.668 187.160 109.354
189 2 284.021 187.339 110.094
190 1 22.064 49.788 12.674
191 1 20.783 48.858 13.075
192 2 21.765 48.858 12.889
193 1 148.450 20.879 71.772
194 1 148.019 19.305 71.701
195 2 148.719 19.972 71.448
196 1 223.565 130.212 121.639
197 1 222.608 128.889 121.670
198 2 223.529 129.234 121.847
199 1 87.759 151.567 141.671
200 1 88.176 153.123 141.402
201 2 88.525 152.196 141.532
202 1 181.857 198.253 203.011
203 1 180.838 198.052 204.271
204 2 181.727 198.411 203.990
205 1 92.239 205.844 148.946
206 1 91.573 204.404 148.561
207 2 92.239 204.864 149.147
208 1 134.743 245.042 89.705
209 1 136.143 245.884 89.729
210 2 135.147 245.957 89.672
211 1 21.997 86.108 111.307
212 1 23.528 86.000 110.750
213 2 22.797 85.513 111.226
214 1 152.642 110.039 89.067
215 1 153.142 108.521 89.403
216 2 153.417 109.408 89.033
217 1 279.930 164.440 56.057
218 1 279.629 165.992 55.649
219 2 280.187 165.392 56.222
220 1 83.207 20.231 245.615
221 1 81.854 20.765 244.875
222 2 82.209 20.176 245.600
223 1 268.528 146.344 287.323
224 1 269.860 145.512 286.877
225 2 269.464 146.423 286.979
226 1 217.297 111.141 33.563
227 1 216.382 110.170 34.505
228 2 216.632 111.118 34.310
229 1 234.776 237.828 33.714
230 1 236.142 236.935 33.760
231 2 235.775 237.864 33.740
232 1 133.002 193.957 87.425
233 1 133.194 192.360 87.144
234 2 133.670 193.230 87.267
235 1 296.266 230.179 251.270
236 1 295.333 231.050 250.252
237 2 296.088 230.398 250.311
238 1 257.642 67.062 58.338
239 1 257.793 65.436 58.378
240 2 257.689 66.232 57.782
241 1 88.479 187.118 68.352
242 1 89.301 188.089 67.328
243 2 88.943 187.998 68.257
244 1 9.769 129.427 42.544
245 1 10.777 128.145 42.631
246 2 9.826 128.442 42.707
247 1 222.361 34.483 233.249
248 1 223.221 34.753 231.887
249 2 222.304 34.747 232.285
250 1 49.197 216.217 140.688
251 1 48.650 217.636 141.284
252 2 49.353 216.931 141.371
253 1 287.598 74.722 57.487
254 1 286.484 73.554 57.238
255 2 287.179 73.898 57.868
256 1 247.457 290.497 248.035
257 1 246.663 291.686 247.245
258 2 246.783 291.230 248.127
259 1 293.822 221.698 101.965
260 1 293.580 220.374 102.890
261 2 293.345 220.820 102.027
262 1 282.194 8.556 278.659
263 1 282.479 7.694 280.017
264 2 282.897 8.097 279.203
265 1 266.356 207.057 189.870
266 1 267.640 206.087 190.148
267 2 267.343 206.951 189.743
268 1 127.676 175.869 112.120
269 1 127.620 177.500 112.077
270 2 127.071 176.665 112.100
271 1 42.861 78.349 230.723
272 1 43.833 79.081 229.633
273 2 43.327 78.245 229.843
274 1 252.625 206.759 288.035
275 1 251.418 205.757 287.581
276 2 251.633 206.629 288.020
277 1 20.006 11.760 266.015
278 1 21.411 11.110 265.497
279 2 20.930 11.491 266.286
280 1 214.542 164.955 269.465
281 1 213.324 165.814 268.798
282 2 214.289 165.832 269.055
283 1 75.822 141.998 298.043
284 1 75.269 140.514 298.442
285 2 75.225 141.488 298.662
286 1 156.867 92.495 152.171
287 1 155.463 92.429 153.002
288 2 156.402 92.090 152.959
289 1 67.295 201.536 219.862
290 1 66.785 202.866 219.063
291 2 67.056 202.503 219.954
292 1 295.374 65.457 9.095
293 1 295.304 64.191 8.065
294 2 295.392 65.185 8.133
295 1 64.126 188.601 61.221
296 1 62.842 188.585 60.213
297 2 63.834 188.486 60.271
298 1 196.257 64.450 47.122
299 1 195.589 64.546 48.609
300 2 195.632 64.010 47.767
301 1 286.634 260.552 138.900
302 1 285.019 260.396 138.719
303 2 285.794 260.213 139.323
304 1 188.794 298.008 97.203
305 1 188.546 297.118 98.549
306 2 188.100 297.586 97.787
307 1 100.129 186.885 112.867
308 1 99.349 188.231 112.371
309 2 100.136 187.886 112.880
310 1 207.954 122.935 60.058
311 1 208.327 124.344 59.320
312 2 208.366 123.348 59.245
313 1 96.106 257.859 8.050
314 1 96.190 259.309 8.796
315 2 95.588 258.673 8.313
316 1 196.738 52.211 279.981
317 1 197.323 52.479 278.480
318 2 196.743 52.845 279.207
319 1 55.351 2.825 250.379
320 1 56.960 3.027 250.186
321 2 56.235 2.357 250.341
322 1 112.757 18.040 271.114
323 1 113.753 19.180 270.501
324 2 113.673 18.216 270.754
325 1 218.579 30.080 196.361
326 1 218.653 29.548 194.818
327 2 218.206 30.191 195.440
328 1 149.502 170.651 291.560
329 1 150.279 171.905 292.260
330 2 149.808 171.040 292.429
331 1 19.719 265.461 29.368
332 1 18.329 264.605 29.413
333 2 19.326 264.541 29.374
334 1 82.256 205.964 95.937
335 1 81.385 204.601 95.710
336 2 81.442 205.577 95.502
337 1 55.983 191.307 286.743
338 1 55.994 189.830 286.046
339 2 56.559 190.608 286.319
340 1 64.421 198.372 182.532
341 1 65.317 197.189 183.211
342 2 64.497 197.751 183.312
343 1 98.712 58.810 266.837
344 1 100.181 58.099 266.866
345 2 99.698 58.974 266.847
346 1 142.478 243.153 201.618
347 1 143.204 244.404 200.862
348 2 142.383 244.112 201.350
349 1 224.349 120.700 214.392
350 1 224.356 122.333 214.395
351 2 224.928 121.514 214.431
352 1 134.750 234.864 79.801
353 1 136.252 235.064 80.409
354 2 135.340 235.466 80.339
355 1 69.354 100.885 238.666
356 1 69.438 102.218 239.605
357 2 68.859 101.695 238.982
358 1 77.742 129.750 13.514
359 1 76.179 129.921 13.954
360 2 76.806 129.444 13.339
361 1 173.754 266.878 299.657
362 1 174.083 265.815 298.461
363 2 174.282 266.727 298.820
364 1 171.438 26.193 194.689
365 1 170.361 24.966 194.670
366 2 171.047 25.441 195.220
367 1 45.338 185.265 26.221
368 1 43.820 185.711 26.622
369 2 44.562 185.073 26.822
370 1 18.143 21.476 82.347
371 1 19.591 21.204 81.643
372 2 18.641 21.471 81.480
373 1 143.306 132.908 240.771
374 1 142.920 134.430 241.219
375 2 142.568 133.580 240.830
376 1 3.827 54.522 124.980
377 1 4.865 53.694 125.930
378 2 4.071 54.301 125.924
379 1 87.992 110.281 46.789
380 1 87.358 108.781 46.663
381 2 87.143 109.753 46.748
382 1 28.734 81.234 164.725
383 1 28.517 79.617 164.653
384 2 28.054 80.501 164.693
385 1 189.050 227.272 92.225
386 1 189.743 227.073 90.760
387 2 189.915 227.131 91.743
388 1 234.963 128.978 123.462
389 1 234.648 127.396 123.712
390 2 234.874 128.263 124.155
391 1 116.653 119.477 222.321
392 1 115.055 119.797 222.217
393 2 115.746 119.075 222.194
394 1 41.861 100.712 234.165
395 1 41.064 100.075 232.891
396 2 41.280 99.958 233.860
397 1 140.503 248.580 125.361
398 1 141.990 248.014 124.993
399 2 141.483 248.782 125.382
400 1 12.277 55.650 145.215
401 1 13.189 55.678 143.860
402 2 13.073 56.066 144.774
403 1 263.361 74.786 63.312
404 1 262.451 76.141 63.358
405 2 263.384 75.785 63.308
406 1 10.186 148.598 68.988
407 1 10.561 147.917 67.552
408 2 10.047 147.800 68.401
409 1 139.326 217.664 127.548
410 1 140.837 217.246 128.002
411 2 139.896 216.925 127.906
412 1 243.248 54.620 124.509
413 1 242.414 55.842 123.819
414 2 242.805 55.501 124.673
415 1 224.495 176.696 248.746
416 1 223.980 175.354 247.971
417 2 224.724 175.752 248.507
418 1 48.177 149.104 189.802
419 1 46.996 149.362 188.705
420 2 47.321 149.588 189.623
421 1 2.480 94.382 122.436
422 1 4.053 94.031 122.173
423 2 3.334 94.710 122.032
424 1 144.873 215.265 13.827
425 1 143.381 215.239 14.490
426 2 144.185 214.689 14.269
427 1 28.458 47.385 287.481
428 1 26.869 47.740 287.611
429 2 27.698 47.892 287.073
430 1 295.898 277.482 182.949
431 1 296.996 278.248 183.884
432 2 296.656 277.356 183.589
433 1 232.873 50.621 99.277
434 1 232.253 49.542 98.220
435 2 232.439 49.725 99.185
436 1 224.395 226.760 92.930
437 1 223.830 225.681 94.018
438 2 223.611 226.505 93.496
439 1 1.672 129.904 55.476
440 1 0.265 129.373 54.840
441 2 0.676 129.936 55.557
442 1 268.440 27.996 289.239
443 1 266.810 27.932 289.163
444 2 267.643 28.145 288.653
445 1 260.987 285.984 4.510
446 1 259.586 285.360 3.949
447 2 260.420 285.850 3.697
448 1 14.854 182.474 58.144
449 1 16.315 182.833 58.780
450 2 15.467 183.217 58.415
451 1 21.935 263.270 294.510
452 1 23.479 262.746 294.601
453 2 22.520 262.469 294.640
454 1 192.202 115.351 170.202
455 1 192.039 115.803 168.641
456 2 191.579 115.377 169.420
457 1 292.835 73.623 245.373
458 1 291.440 72.775 245.424
459 2 291.837 73.692 245.388
460 1 160.717 123.373 277.389
461 1 160.604 124.910 277.929
462 2 160.255 124.251 277.263
463 1 92.930 19.925 134.184
464 1 94.473 20.459 134.197
465 2 93.830 19.835 133.756
466 1 102.148 266.373 192.845
467 1 103.521 267.168 193.235
468 2 103.105 266.267 193.116
469 1 159.369 144.311 60.294
470 1 159.405 142.699 60.550
471 2 159.911 143.553 60.658
472 1 20.604 190.406 217.614
473 1 20.420 192.006 217.341
474 2 20.985 191.314 217.789
475 1 293.704 38.680 290.186
476 1 292.642 39.670 290.933
477 2 293.138 38.805 291.001
478 1 104.093 138.720 38.246
479 1 104.261 139.320 36.737
480 2 104.260 138.486 37.288
481 1 25.767 43.185 84.400
482 1 24.557 42.693 83.419
483 2 25.526 42.584 83.637
484 1 251.108 13.873 67.619
485 1 252.303 14.176 68.690
486 2 251.677 14.587 68.028
487 1 92.798 287.892 224.681
488 1 91.294 287.591 225.241
489 2 92.258 287.664 225.492
490 1 155.980 296.262 11.399
491 1 155.883 296.082 13.019
492 2 155.527 296.583 12.231
493 1 188.918 259.875 119.062
494 1 187.599 259.173 118.403
495 2 188.596 259.145 118.458
496 1 5.060 46.154 254.139
497 1 5.640 47.274 253.101
498 2 4.894 47.050 253.727
499 1 292.452 111.276 282.126
500 1 293.624 110.409 282.863
501 2 293.309 110.779 281.990
502 1 168.301 153.970 11.624
503 1 169.271 152.668 11.800
504 2 169.055 153.578 12.151
505 1 214.569 14.641 60.339
506 1 216.151 14.681 59.935
507 2 215.414 15.173 60.397
508 1 59.463 218.539 75.507
509 1 59.891 216.963 75.469
510 2 59.120 217.600 75.493
511 1 93.029 87.663 7.747
512 1 92.584 88.461 9.100
513 2 92.706 87.559 8.688
514 1 109.080 37.156 195.731
515 1 107.515 37.234 195.274
516 2 108.452 37.092 194.956
517 1 208.412 232.718 257.273
518 1 209.184 234.155 257.345
519 2 208.767 233.425 257.885
520 1 105.436 149.932 202.404
521 1 105.666 151.544 202.530
522 2 104.981 150.822 202.429
523 1 271.977 269.971 123.433
524 1 272.987 268.838 124.037
525 2 272.199 269.420 124.237
526 1 244.596 97.436 131.452
527 1 243.123 97.805 130.852
528 2 243.762 97.967 131.603
529 1 73.733 33.079 21.769
530 1 72.578 33.927 22.553
531 2 72.752 33.147 21.953
532 1 288.882 35.141 164.995
533 1 290.289 35.702 165.605
534 2 289.337 35.931 165.407
535 1 13.645 95.190 124.134
536 1 13.966 96.719 123.658
537 2 14.334 95.915 124.125
538 1 272.370 264.098 223.591
539 1 271.365 263.203 224.516
540 2 271.737 264.118 224.365
541 1 21.545 204.980 58.326
542 1 20.213 204.166 57.847
543 2 20.579 205.066 58.079
544 1 14.628 131.505 295.646
545 1 15.369 131.493 294.190
546 2 14.515 131.691 294.670
547 1 201.842 276.573 139.962
548 1 203.371 276.004 140.010
549 2 202.808 276.829 139.978
550 1 74.534 168.368 33.418
551 1 74.002 168.680 34.930
552 2 73.818 168.813 33.957
553 1 179.104 10.282 197.199
554 1 180.635 10.002 197.694
555 2 179.952 10.709 197.514
556 1 198.079 104.436 267.940
557 1 198.546 105.453 266.751
558 2 198.333 105.380 267.725
559 1 33.846 217.020 3.265
560 1 32.801 218.271 3.369
561 2 33.696 217.981 3.032
562 1 282.087 236.431 168.728
563 1 281.713 237.122 167.296
564 2 282.436 236.985 167.972
565 1 42.162 226.435 160.069
566 1 41.525 227.521 161.108
567 2 42.173 227.392 160.358
568 1 103.679 299.149 16.962
569 1 102.485 299.006 18.066
570 2 102.753 299.438 17.206
571 1 167.721 92.907 246.712
572 1 168.900 93.946 247.156
573 2 168.185 93.763 246.482
574 1 203.916 95.620 138.107
575 1 202.574 94.691 138.052
576 2 202.945 95.601 137.869
577 1 204.051 2.353 48.404
578 1 205.050 3.452 49.085
579 2 204.176 3.322 48.618
580 1 257.408 265.091 204.717
581 1 257.487 265.659 203.188
582 2 256.964 265.678 204.040
583 1 163.794 79.881 243.930
584 1 163.581 81.480 243.676
585 2 163.309 80.699 244.238
586 1 86.533 4.711 47.542
587 1 87.443 3.401 47.889
588 2 87.418 4.400 47.888
589 1 260.354 146.129 194.461
590 1 260.942 145.182 193.268
591 2 261.067 146.039 193.766
592 1 223.748 262.216 95.846
593 1 222.164 261.836 95.722
594 2 222.994 262.054 95.209
595 1 115.731 14.800 257.775
596 1 115.794 16.428 257.884
597 2 115.542 15.588 258.362
598 1 85.624 123.213 182.102
599 1 86.034 122.793 180.578
600 2 86.309 122.752 181.538
601 1 238.899 276.831 226.280
602 1 240.086 277.751 225.637
603 2 239.118 277.509 225.578
604 1 3.532 100.269 269.412
605 1 1.899 100.286 269.403
606 2 2.721 100.854 269.400
607 1 193.436 287.147 272.768
608 1 193.924 288.698 272.623
609 2 193.130 288.093 272.659
610 1 281.086 148.577 78.668
611 1 281.117 149.109 77.125
612 2 281.033 149.385 78.082
613 1 213.930 187.781 161.935
614 1 214.823 186.444 162.224
615 2 214.815 187.443 162.257
616 1 2.427 26.281 107.312
617 1 3.361 27.619 107.253
618 2 2.423 27.282 107.316
619 1 151.686 101.606 281.092
620 1 150.892 103.027 281.228
621 2 150.822 102.079 280.919
622 1 14.955 203.298 120.647
623 1 13.866 202.085 120.543
624 2 14.015 203.062 120.397
625 1 96.996 194.949 230.830
626 1 97.157 195.280 232.421
627 2 96.548 194.905 231.723
628 1 114.943 220.839 40.288
629 1 113.311 220.811 40.239
630 2 114.131 221.237 39.860
631 1 23.976 185.335 167.642
632 1 23.668 186.916 167.907
633 2 24.383 186.246 167.709
634 1 133.291 14.951 223.376
635 1 132.398 15.451 222.103
636 2 132.886 15.746 222.924
637 1 115.157 31.830 150.792
638 1 116.112 30.734 151.535
639 2 115.748 31.035 150.655
640 1 96.420 185.576 253.169
641 1 97.239 186.305 251.959
642 2 96.897 186.410 252.892
643 1 103.353 65.857 84.687
644 1 104.621 64.838 84.826
645 2 104.348 65.797 84.766
646 1 201.528 5.147 198.083
647 1 202.876 4.741 198.910
648 2 202.316 5.502 198.586
649 1 86.550 191.881 132.605
650 1 84.928 191.733 132.480
651 2 85.682 192.378 132.605
652 1 26.643 96.114 189.805
653 1 26.565 94.578 190.353
654 2 27.148 95.385 190.268
655 1 109.752 158.517 223.575
656 1 110.957 157.623 222.930
657 2 110.707 158.527 223.277
658 1 59.696 274.714 130.407
659 1 60.531 275.657 129.367
660 2 59.754 275.035 129.461
661 1 144.399 53.854 173.866
662 1 144.381 55.487 173.843
663 2 144.279 54.678 174.420
664 1 115.856 53.671 28.123
665 1 116.250 52.088 28.046
666 2 116.613 53.018 28.078
667 1 8.217 190.109 240.225
668 1 9.849 190.036 240.227
669 2 9.054 190.538 240.565
670 1 102.382 26.649 255.750
671 1 101.152 25.576 255.807
672 2 101.388 26.547 255.793
673 1 60.991 89.100 285.252
674 1 62.585 88.960 284.927
675 2 61.913 89.295 285.586
676 1 29.188 241.503 83.474
677 1 28.257 242.815 83.193
678 2 29.108 242.351 82.949
679 1 82.847 38.683 128.332
680 1 82.704 38.476 126.719
681 2 82.605 39.128 127.469
682 1 217.561 183.790 82.552
683 1 216.474 182.590 82.761
684 2 216.642 183.568 82.876
685 1 28.151 287.700 88.639
686 1 28.711 286.185 88.397
687 2 28.908 287.158 88.274
688 1 270.589 272.307 212.715
689 1 270.081 271.745 211.269
690 2 270.251 271.504 212.224
691 1 5.951 46.728 219.189
692 1 4.503 46.725 218.434
693 2 5.040 46.316 219.171
694 1 249.330 1.779 299.439
695 1 250.499 0.639 299.407
696 2 250.314 1.621 299.363
697 1 34.186 191.294 230.220
698 1 35.186 192.205 231.135
699 2 34.364 191.636 231.143
700 1 253.538 184.544 213.449
701 1 252.817 185.684 212.529
702 2 253.617 185.475 213.090
703 1 231.842 244.334 20.141
704 1 233.250 243.509 20.204
705 2 232.259 243.426 20.101
706 1 142.779 289.726 293.496
707 1 141.340 290.491 293.397
708 2 141.820 289.631 293.229
709 1 91.819 216.205 247.484
710 1 92.721 216.957 248.619
711 2 92.699 216.208 247.958
712 1 42.716 210.467 210.078
713 1 42.047 208.989 210.264
714 2 42.905 209.487 210.139
715 1 37.970 85.527 248.167
716 1 38.259 86.959 248.897
717 2 37.567 86.262 248.714
718 1 226.459 277.723 287.761
719 1 225.364 276.924 286.851
720 2 226.338 277.044 287.037
721 1 247.881 116.771 281.080
722 1 246.430 116.387 280.437
723 2 247.272 116.019 280.829
724 1 150.555 69.643 26.236
725 1 151.020 70.974 25.411
726 2 151.341 70.171 25.912
727 1 144.325 82.996 274.687
728 1 145.040 81.530 274.771
729 2 144.164 82.010 274.737
730 1 85.664 182.008 264.054
731 1 86.169 183.552 263.889
732 2 85.456 182.896 263.644
733 1 104.998 64.074 239.391
734 1 105.267 65.663 239.653
735 2 105.702 64.777 239.497
736 1 165.264 39.730 23.818
737 1 164.832 40.176 22.308
738 2 165.604 39.985 22.913
739 1 6.984 119.225 59.331
740 1 5.838 118.268 59.994
741 2 6.223 119.190 59.980
742 1 71.663 231.666 6.489
743 1 72.693 232.420 7.508
744 2 71.893 231.822 7.450
745 1 224.818 89.534 53.637
746 1 223.794 90.137 54.758
747 2 223.861 89.743 53.842
748 1 292.396 44.985 71.456
749 1 293.298 45.119 72.811
750 2 292.374 44.977 72.456
751 1 23.302 173.119 122.632
752 1 23.679 171.604 123.109
753 2 23.889 172.329 122.455
754 1 202.870 206.022 191.507
755 1 203.639 206.358 192.908
756 2 203.586 206.575 191.934
757 1 248.365 216.725 132.503
758 1 249.321 218.049 132.516
759 2 248.376 217.725 132.527
760 1 127.891 246.359 0.855
761 1 128.820 247.570 0.275
762 2 127.883 247.279 0.462
763 1 170.237 113.710 45.276
764 1 168.668 113.312 45.063
765 2 169.589 112.951 45.206
766 1 175.264 265.037 85.739
767 1 173.892 264.403 85.121
768 2 174.877 264.270 85.228
769 1 163.333 223.171 199.970
770 1 164.567 222.269 199.395
771 2 164.317 223.001 200.028
772 1 11.676 10.796 141.702
773 1 11.716 10.252 143.241
774 2 11.188 10.778 142.575
775 1 195.285 60.755 163.499
776 1 194.480 62.125 163.879
777 2 195.355 61.750 163.575
778 1 261.951 283.537 9.659
779 1 263.538 283.316 9.974
780 2 262.666 282.855 9.811
781 1 259.591 228.329 92.959
782 1 258.878 229.744 93.354
783 2 258.763 228.752 93.326
784 1 152.220 182.366 48.342
785 1 152.830 181.550 47.066
786 2 152.061 182.098 47.391
787 1 172.595 133.182 31.701
788 1 171.275 132.556 30.971
789 2 171.643 132.902 31.833
790 1 193.503 41.763 193.063
791 1 192.277 40.806 193.559
792 2 193.249 40.833 193.328
793 1 205.936 222.767 100.376
794 1 206.649 221.330 100.070
795 2 206.804 222.271 100.367
796 1 41.603 55.431 126.565
797 1 41.376 57.039 126.738
798 2 42.048 56.300 126.780
799 1 56.666 121.386 270.227
800 1 55.041 121.327 270.078
801 2 55.900 121.486 269.592
802 1 166.592 186.049 217.427
803 1 166.947 187.278 216.412
804 2 167.332 186.544 216.971
805 1 139.389 9.804 118.028
806 1 140.968 9.388 117.982
807 2 140.166 9.611 117.428
808 1 263.260 189.692 18.592
809 1 264.425 189.291 17.521
810 2 264.135 189.223 18.475
811 1 205.628 173.044 206.763
812 1 206.477 171.649 206.759
813 2 206.542 172.644 206.826
814 1 266.893 178.653 132.380
815 1 266.069 179.392 131.179
816 2 266.292 178.510 131.593
817 1 117.740 12.167 91.324
818 1 118.351 12.014 92.830
819 2 118.211 12.643 92.066
820 1 111.536 140.841 187.742
821 1 111.853 142.317 187.119
822 2 111.959 141.730 187.921
823 1 71.927 259.284 65.243
824 1 71.174 257.851 65.029
825 2 72.062 258.300 65.125
826 1 165.238 175.036 79.427
827 1 166.622 175.870 79.194
828 2 166.148 175.009 79.014
829 1 216.360 87.306 138.823
830 1 217.534 88.437 138.913
831 2 216.547 88.282 138.930
832 1 127.460 5.297 4.600
833 1 128.866 5.481 5.410
834 2 127.972 5.888 5.223
835 1 210.980 167.582 89.773
836 1 210.060 167.147 88.496
837 2 210.206 167.845 89.196
838 1 83.544 208.451 274.171
839 1 83.071 207.024 273.535
840 2 82.838 207.991 273.633
841 1 257.454 214.982 136.090
842 1 255.894 215.313 135.739
843 2 256.742 215.683 136.117
844 1 242.500 246.038 51.500
845 1 240.949 245.676 51.138
846 2 241.879 245.315 51.197
847 1 227.940 257.112 79.388
848 1 227.041 256.033 78.554
849 2 227.239 257.004 78.683
850 1 4.857 227.563 18.262
851 1 5.902 226.827 17.245
852 2 5.808 227.283 18.130
853 1 290.970 194.915 3.278
854 1 290.018 195.816 2.305
855 2 290.243 194.886 2.593
856 1 131.524 161.962 274.567
857 1 133.155 161.890 274.593
858 2 132.313 161.381 274.769
859 1 175.815 118.494 131.306
860 1 174.795 119.311 132.285
861 2 175.077 118.404 131.975
862 1 257.125 201.455 241.470
863 1 255.940 202.411 242.061
864 2 256.843 202.401 241.632
865 1 193.668 31.889 218.951
866 1 193.467 33.454 218.532
867 2 194.135 32.760 218.798
868 1 239.454 181.128 174.371
869 1 238.272 180.065 173.993
870 2 238.921 180.347 174.699
871 1 266.598 110.895 39.385
872 1 267.513 111.489 38.170
873 2 266.617 111.116 38.410
874 1 97.650 284.498 245.611
875 1 98.705 285.260 244.625
876 2 98.003 284.551 244.677
877 1 155.939 84.992 213.125
878 1 157.144 83.991 212.666
879 2 156.256 84.369 212.410
880 1 252.905 245.124 156.304
881 1 254.309 244.662 156.998
882 2 253.350 244.888 157.167
883 1 38.059 83.436 251.461
884 1 39.331 82.414 251.531
885 2 38.337 82.475 251.447
886 1 223.666 30.317 127.918
887 1 222.456 30.186 129.006
888 2 223.147 30.799 128.624
889 1 165.404 130.544 74.231
890 1 166.895 129.884 74.329
891 2 165.915 129.703 74.410
892 1 43.329 227.150 88.196
893 1 42.299 227.695 87.053
894 2 42.416 227.045 87.803
895 1 176.224 192.341 251.819
896 1 176.330 190.745 252.149
897 2 175.705 191.494 251.930
898 1 202.087 107.858 115.631
899 1 201.962 106.305 116.121
900 2 201.503 107.046 115.632
901 1 157.122 194.417 283.049
902 1 158.107 195.579 282.461
903 2 157.794 194.637 282.342
904 1 290.084 236.756 68.650
905 1 289.001 235.543 68.800
906 2 289.560 236.204 69.299
907 1 39.536 45.460 200.197
908 1 40.616 45.940 201.323
909 2 40.337 45.186 200.729
910 1 144.959 120.994 76.744
911 1 146.485 120.686 77.237
912 2 145.829 120.569 76.492
913 1 299.266 149.386 234.775
914 1 299.007 147.848 234.292
915 2 298.721 148.799 234.177
916 1 250.172 97.856 294.054
917 1 249.467 99.308 293.808
918 2 250.281 98.756 293.631
919 1 158.083 183.784 160.824
920 1 157.053 182.584 160.417
921 2 157.750 183.212 160.074
922 1 99.324 254.696 41.185
923 1 99.431 253.869 39.781
924 2 99.007 253.889 40.685
925 1 196.478 125.265 250.422
926 1 196.103 126.707 251.091
927 2 195.796 125.766 250.956
928 1 100.460 134.309 211.776
929 1 101.860 134.873 211.153
930 2 101.266 134.873 211.956
931 1 282.653 169.144 123.478
932 1 283.503 168.018 124.301
933 2 283.567 168.779 123.657
934 1 208.114 223.611 78.381
935 1 206.824 223.087 77.528
936 2 207.329 223.895 77.829
937 1 122.601 103.915 195.103
938 1 121.097 104.522 195.293
939 2 121.911 104.526 194.713
940 1 248.953 263.077 209.757
941 1 247.474 263.749 209.592
942 2 248.009 263.064 210.086
943 1 251.666 286.686 184.008
944 1 252.714 286.617 185.259
945 2 251.814 286.331 184.931
946 1 161.928 147.615 169.733
947 1 162.841 148.131 170.985
948 2 162.169 147.452 170.690
949 1 135.890 200.589 204.082
950 1 135.933 199.327 205.117
951 2 135.336 199.929 204.589
952 1 70.447 219.806 56.878
953 1 70.067 218.222 56.996
954 2 70.272 219.053 57.512
955 1 251.686 34.570 30.616
956 1 251.735 32.996 31.045
957 2 252.222 33.727 30.569
958 1 65.258 84.138 184.876
959 1 66.493 83.070 184.886
960 2 66.228 84.008 184.666
961 1 293.279 5.782 51.602
962 1 292.483 7.092 52.165
963 2 293.343 6.765 51.774
964 1 108.699 200.687 194.940
965 1 110.199 201.171 194.515
966 2 109.661 200.418 194.893
967 1 183.435 116.777 274.126
968 1 183.995 115.453 274.900
969 2 183.204 116.050 274.773
970 1 77.182 248.078 109.005
971 1 78.390 247.215 108.327
972 2 78.009 247.547 109.189
973 1 139.134 110.810 121.045
974 1 139.201 110.213 119.527
975 2 139.251 109.982 120.498
976 1 208.730 254.738 58.290
977 1 209.125 254.643 59.872
978 2 209.092 254.142 59.008
979 1 184.586 1.698 20.180
980 1 184.751 2.924 21.246
981 2 184.136 2.211 20.911
982 1 140.136 158.747 108.036
983 1 140.981 157.699 108.960
984 2 140.095 157.880 108.533
985 1 7.608 104.866 234.266
986 1 7.799 104.621 235.869
987 2 7.568 104.187 234.999
988 1 186.699 161.155 131.555
989 1 186.625 161.727 130.027
990 2 186.171 161.716 130.918
991 1 95.727 81.390 219.195
992 1 95.156 80.001 218.554
993 2 95.028 80.991 218.602
994 1 264.292 200.461 114.346
995 1 263.396 199.291 113.642
996 2 263.663 199.702 114.513
997 1 33.263 289.202 125.768
998 1 33.594 289.334 127.362
999 2 33.323 288.705 126.634
1000 1 237.539 65.672 82.263
1001 1 238.341 66.773 81.362
1002 2 237.439 66.470 81.669
1003 1 74.413 274.079 83.332
1004 1 75.936 274.283 82.779
1005 2 74.999 274.047 82.522
1006 1 30.330 54.445 89.567
1007 1 28.716 54.214 89.656
1008 2 29.593 54.023 90.095
1009 1 115.734 3.103 12.815
1010 1 115.078 4.496 12.270
1011 2 115.848 3.865 12.177
1012 1 264.945 136.672 62.361
1013 1 266.261 137.391 61.716
1014 2 265.402 137.547 62.202
1015 1 267.234 220.473 184.607
1016 1 267.169 221.972 183.964
1017 2 266.656 221.276 184.465
1018 1 74.090 263.267 37.506
1019 1 73.469 263.433 39.008
1020 2 73.259 263.200 38.059
1021 1 214.745 193.692 171.288
1022 1 216.298 193.377 171.681
1023 2 215.344 193.196 171.917
1024 1 179.142 160.210 157.346
1025 1 178.850 159.181 158.581
1026 2 179.504 159.833 158.199
1027 1 293.843 48.533 55.339
1028 1 292.345 48.146 54.818
1029 2 293.309 47.884 54.797
1030 1 25.770 217.394 147.957
1031 1 25.715 218.414 149.231