LAMMPS Description

45000  atoms
0  bonds
0  angles
0  dihedrals
0  impropers

2  atom types
0  bond types
0  angle types
0  dihedral types
0  improper types

0.0 120.0 xlo xhi
0.0 120.0 ylo yhi
0.0 120.0 zlo zhi

Masses

1 1.00794  # H
2 15.9994  # O

Atoms

1 1 109.856 112.400 13.475
2 1 110.815 111.106 13.203
3 2 109.879 111.404 13.389
4 1 119.889 4.431 92.423
5 1 118.591 3.832 91.634
6 2 119.211 4.612 91.711
7 1 105.810 29.629 24.673
8 1 105.556 28.016 24.634
9 2 105.679 28.809 25.230
10 1 37.609 35.734 16.666
11 1 38.693 35.244 17.785
12 2 37.745 35.164 17.476
13 1 4.854 52.570 96.508
14 1 4.335 51.366 95.534
15 2 4.059 52.182 96.040
16 1 84.884 62.462 58.475
17 1 85.511 61.274 59.403
18 2 84.930 61.473 58.615
19 1 78.107 26.749 81.064
20 1 77.527 28.272 81.162
21 2 77.356 27.355 80.803
22 1 69.750 82.228 96.311
23 1 68.622 82.504 95.162
24 2 69.024 81.813 95.762
25 1 7.222 19.101 106.599
26 1 6.944 20.609 107.160
27 2 6.533 19.818 106.707
28 1 42.371 98.214 55.140
29 1 41.844 99.607 55.810
30 2 41.804 99.026 54.998
31 1 4.884 49.356 45.391
32 1 4.679 50.856 44.781
33 2 4.479 49.886 44.647
34 1 88.280 3.647 19.157
35 1 87.906 2.864 17.774
36 2 88.447 2.824 18.613
37 1 8.279 112.969 87.856
38 1 9.782 112.343 87.735
39 2 9.219 113.151 87.567
40 1 118.352 58.604 0.927
41 1 117.965 60.136 0.515
42 2 118.041 59.490 1.273
43 1 75.720 43.685 114.630
44 1 77.306 44.067 114.715
45 2 76.648 43.316 114.681
46 1 73.792 87.270 57.660
47 1 75.249 88.000 57.755
48 2 74.261 88.149 57.749
49 1 53.567 4.278 89.009
50 1 52.980 5.801 89.068
51 2 52.802 4.848 89.311
52 1 72.511 119.635 37.055
53 1 73.790 118.942 36.312
54 2 72.912 119.398 36.170
55 1 63.789 111.372 116.871
56 1 62.547 112.432 116.874
57 2 62.793 111.463 116.872
58 1 69.748 90.643 71.232
59 1 71.231 90.216 70.697
60 2 70.545 90.065 71.408
61 1 3.652 41.175 84.620
62 1 2.297 41.117 83.709
63 2 2.850 40.626 84.382
64 1 55.353 83.439 110.297
65 1 56.296 83.638 111.616
66 2 55.618 83.047 111.178
67 1 4.312 26.171 82.799
68 1 3.433 26.876 83.981
69 2 4.352 26.601 83.701
70 1 55.755 37.499 109.198
71 1 55.057 37.912 110.616
72 2 55.673 38.217 109.891
73 1 97.507 89.645 88.627
74 1 98.884 89.743 87.755
75 2 98.486 89.842 88.667
76 1 18.632 113.045 71.768
77 1 17.012 113.022 71.563
78 2 17.837 112.460 71.607
79 1 60.639 72.078 63.775
80 1 59.295 72.942 63.440
81 2 59.746 72.057 63.326
82 1 117.275 13.967 9.732
83 1 116.555 12.512 9.913
84 2 117.433 12.985 9.838
85 1 20.760 71.305 111.549
86 1 22.020 70.356 111.971
87 2 21.027 70.457 112.007
88 1 68.695 6.111 2.419
89 1 69.196 4.685 1.800
90 2 68.405 5.278 1.947
91 1 22.525 22.153 8.578
92 1 21.039 21.555 8.897
93 2 21.953 21.332 8.562
94 1 48.777 62.268 60.751
95 1 48.624 63.892 60.821
96 2 49.270 63.138 60.711
97 1 104.093 100.842 92.541
98 1 104.427 100.622 90.958
99 2 104.363 101.296 91.692
100 1 25.287 27.037 36.403
101 1 26.876 26.887 36.748
102 2 26.099 26.465 36.283
103 1 90.438 114.315 76.527
104 1 90.916 115.417 77.633
105 2 90.134 115.058 77.125
106 1 20.134 107.756 74.800
107 1 21.692 107.554 75.244
108 2 20.851 107.083 74.981
109 1 79.160 14.735 91.090
110 1 79.228 13.120 91.324
111 2 79.414 14.012 91.734
112 1 40.954 27.793 64.214
113 1 41.308 26.200 64.175
114 2 40.596 26.873 64.371
115 1 113.136 75.054 64.622
116 1 112.179 73.990 65.409
117 2 112.214 74.889 64.973
118 1 93.766 65.650 1.217
119 1 92.222 65.371 0.762
120 2 93.035 65.928 0.593
121 1 1.321 32.111 45.763
122 1 1.257 30.501 46.029
123 2 1.006 31.234 45.399
124 1 114.173 77.131 28.386
125 1 113.680 75.580 28.248
126 2 114.088 76.353 27.764
127 1 15.701 95.654 32.593
128 1 16.386 94.172 32.627
129 2 16.566 95.155 32.640
130 1 60.363 65.039 80.120
131 1 59.011 65.080 79.206
132 2 59.841 65.576 79.457
133 1 114.449 73.552 110.453
134 1 113.702 74.962 110.107
135 2 114.572 74.471 110.078
136 1 20.708 61.942 50.538
137 1 19.240 62.654 50.620
138 2 20.223 62.817 50.540
139 1 71.659 42.275 49.542
140 1 72.717 41.054 49.785
141 2 71.986 41.396 49.194
142 1 108.662 109.402 20.327
143 1 109.586 109.262 18.988
144 2 108.880 109.807 19.439
145 1 103.488 33.879 27.135
146 1 102.287 33.231 26.239
147 2 103.219 33.590 26.216
148 1 32.624 56.524 96.445
149 1 31.656 57.828 96.277
150 2 31.705 56.885 96.605
151 1 6.294 59.061 1.071
152 1 5.059 58.976 0.006
153 2 5.961 58.614 0.240
154 1 94.285 96.448 15.357
155 1 94.894 97.713 14.522
156 2 95.120 96.860 14.992
157 1 50.111 56.769 10.695
158 1 48.611 56.203 11.006
159 2 49.186 57.020 10.981
160 1 15.777 24.293 73.034
161 1 17.136 24.957 73.649
162 2 16.766 24.383 72.919
163 1 13.712 4.473 55.666
164 1 13.205 4.518 57.217
165 2 13.958 4.262 56.612
166 1 73.121 33.248 93.828
167 1 72.452 31.822 94.258
168 2 72.301 32.807 94.195
169 1 107.665 85.984 85.773
170 1 106.277 85.748 84.945
171 2 106.900 86.437 85.314
172 1 91.692 25.603 35.095
173 1 93.294 25.286 35.105
174 2 92.384 24.887 34.996
175 1 91.359 41.491 63.677
176 1 92.205 40.531 62.663
177 2 91.698 40.563 63.524
178 1 68.530 21.137 118.392
179 1 68.207 21.034 119.990
180 2 68.696 21.551 119.288
181 1 99.047 73.483 55.590
182 1 97.423 73.387 55.446
183 2 98.269 72.859 55.518
184 1 61.168 18.882 80.349
185 1 61.714 20.383 80.692
186 2 60.929 19.853 80.374
187 1 15.704 91.931 62.874
188 1 16.821 92.604 61.890
189 2 16.589 92.396 62.840
190 1 76.476 75.254 40.361
191 1 76.970 76.810 40.357
192 2 77.273 75.858 40.371
193 1 10.610 82.188 73.556
194 1 9.150 82.817 73.928
195 2 9.622 82.053 73.490
196 1 59.938 5.783 99.309
197 1 59.826 6.122 97.715
198 2 59.559 5.481 98.434
199 1 45.750 24.392 81.142
200 1 46.028 22.835 81.547
201 2 46.453 23.688 81.245
202 1 111.771 20.311 89.291
203 1 110.162 20.542 89.439
204 2 111.038 20.990 89.264
205 1 73.130 45.539 10.122
206 1 73.461 47.138 10.140
207 2 73.860 46.222 10.136
208 1 38.965 91.196 27.532
209 1 37.350 90.964 27.470
210 2 38.158 91.224 26.942
211 1 11.454 26.069 48.709
212 1 9.957 26.141 49.359
213 2 10.536 26.455 48.608
214 1 102.674 114.760 82.739
215 1 101.399 114.398 81.784
216 2 101.848 115.123 82.305
217 1 103.664 58.508 85.042
218 1 104.477 57.593 86.124
219 2 104.474 57.940 85.186
220 1 114.192 33.801 43.744
221 1 114.186 32.541 44.782
222 2 114.735 33.050 44.119
223 1 31.681 47.522 23.645
224 1 31.434 49.108 23.340
225 2 31.266 48.365 23.988
226 1 95.982 57.206 1.497
227 1 94.725 56.283 1.011
228 2 95.631 56.272 1.433
229 1 85.119 27.401 33.591
230 1 83.909 26.635 32.807
231 2 84.825 26.532 33.193
232 1 15.470 119.923 78.673
233 1 14.020 119.248 78.999
234 2 14.995 119.232 79.218
235 1 84.004 70.543 62.072
236 1 82.431 70.372 61.664
237 2 83.070 70.840 62.274
238 1 76.130 12.537 2.230
239 1 76.643 13.851 1.407
240 2 75.976 13.512 2.070
241 1 17.570 32.833 103.812
242 1 18.553 34.136 103.812
243 2 18.522 33.137 103.811
244 1 48.440 2.081 99.541
245 1 48.742 0.537 99.102
246 2 48.647 1.476 98.772
247 1 116.664 110.275 8.674
248 1 117.661 109.912 9.916
249 2 117.500 109.793 8.937
250 1 95.072 7.456 107.858
251 1 96.291 6.798 106.992
252 2 95.524 7.438 106.966
253 1 5.513 44.908 8.623
254 1 4.468 43.955 9.439
255 2 4.630 44.441 8.581
256 1 61.518 25.447 31.826
257 1 60.483 25.885 30.641
258 2 60.995 26.206 31.437
259 1 0.993 110.456 11.897
260 1 2.371 111.129 12.460
261 2 1.929 110.721 11.662
262 1 110.238 91.033 96.365
263 1 111.321 90.711 97.544
264 2 111.167 90.714 96.556
265 1 105.671 12.330 76.358
266 1 104.565 13.095 75.431
267 2 104.834 12.216 75.823
268 1 13.977 32.132 91.955
269 1 14.662 33.557 91.548
270 2 14.132 32.780 91.209
271 1 73.215 73.062 44.186
272 1 72.061 71.940 43.915
273 2 72.889 72.150 44.433
274 1 41.092 96.438 73.133
275 1 40.681 94.927 72.669
276 2 40.592 95.611 73.393
277 1 94.603 9.225 65.627
278 1 93.133 9.582 65.014
279 2 94.022 9.171 64.815
280 1 36.305 96.482 83.184
281 1 34.830 96.637 82.501
282 2 35.717 97.077 82.635
283 1 33.129 4.522 114.965
284 1 31.519 4.365 114.736
285 2 32.393 3.881 114.743
286 1 65.153 1.508 45.320
287 1 64.848 0.539 44.042
288 2 65.359 0.626 44.897
289 1 13.481 92.165 95.656
290 1 14.754 92.664 96.550
291 2 13.841 92.907 96.222
292 1 11.954 77.325 55.481
293 1 13.357 78.148 55.335
294 2 12.939 77.299 55.656
295 1 82.535 87.943 13.507
296 1 81.266 86.915 13.527
297 2 81.538 87.877 13.540
298 1 37.524 35.539 83.408
299 1 36.292 36.509 82.951
300 2 36.811 35.687 82.722
301 1 36.673 72.748 57.445
302 1 37.636 73.957 57.971
303 2 37.222 73.080 58.212
304 1 108.226 97.587 16.982
305 1 106.681 97.857 17.439
306 2 107.366 97.153 17.251
307 1 12.759 68.052 22.858
308 1 11.811 67.021 22.017
309 2 11.870 67.593 22.835
310 1 114.598 46.700 104.522
311 1 115.836 47.762 104.590
312 2 114.848 47.652 104.695
313 1 26.383 90.037 34.934
314 1 27.898 89.522 34.608
315 2 26.955 89.233 34.773
316 1 33.871 101.578 108.168
317 1 32.359 102.191 108.103
318 2 32.897 101.352 108.171
319 1 73.391 20.313 91.398
320 1 72.564 18.964 90.993
321 2 73.473 19.372 91.069
322 1 36.973 110.314 1.679
323 1 38.205 111.277 2.149
324 2 37.377 111.225 1.593
325 1 16.244 32.482 106.723
326 1 17.607 33.143 107.332
327 2 16.755 33.333 106.846
328 1 25.027 81.636 25.597
329 1 25.282 81.946 24.014
330 2 25.362 82.312 24.940
331 1 53.727 88.209 70.558
332 1 52.896 89.591 70.814
333 2 52.816 88.623 70.578
334 1 67.168 82.517 42.412
335 1 68.143 83.619 41.703
336 2 67.283 83.487 42.194
337 1 106.108 39.011 57.594
338 1 107.022 40.365 57.590
339 2 106.223 39.918 57.188
340 1 101.281 112.424 44.668
341 1 102.281 113.060 45.792
342 2 101.374 112.673 45.632
343 1 11.927 94.888 61.022
344 1 11.903 95.097 62.642
345 2 11.499 94.596 61.877
346 1 116.617 18.327 100.985
347 1 116.909 16.723 101.085
348 2 117.317 17.617 100.902
349 1 47.062 33.295 96.314
350 1 46.220 32.341 95.290
351 2 46.216 33.208 95.787
352 1 42.847 58.341 45.224
353 1 44.023 57.261 45.567
354 2 43.778 58.230 45.573
355 1 62.301 110.205 19.890
356 1 60.911 109.454 20.306
357 2 61.493 110.249 20.479
358 1 34.292 50.480 9.278
359 1 33.024 51.278 9.929
360 2 33.298 50.594 9.254
361 1 66.954 68.992 107.366
362 1 66.360 70.409 106.812
363 2 67.194 69.887 106.989
364 1 25.657 5.234 30.952
365 1 26.157 5.079 29.406
366 2 25.751 4.601 30.184
367 1 58.686 77.658 56.120
368 1 57.858 76.258 56.269
369 2 58.768 76.665 56.207
370 1 31.555 37.333 69.322
371 1 30.949 36.316 70.447
372 2 31.310 36.383 69.517
373 1 30.959 43.438 53.551
374 1 30.448 41.895 53.706
375 2 30.849 42.562 53.080
376 1 119.416 6.128 2.396
377 1 118.825 6.169 3.918
378 2 118.919 5.612 3.094
379 1 47.088 52.224 25.861
380 1 47.305 50.621 26.084
381 2 46.723 51.314 25.661
382 1 83.964 92.644 75.277
383 1 82.640 93.501 75.703
384 2 83.379 92.919 76.041
385 1 25.978 105.573 61.007
386 1 26.593 106.805 61.885
387 2 26.736 105.859 61.594
388 1 75.031 74.584 109.659
389 1 75.063 75.749 110.803
390 2 75.033 74.763 110.643
391 1 20.405 13.873 68.043
392 1 19.785 15.365 68.280
393 2 19.743 14.545 67.710
394 1 82.680 31.020 106.533
395 1 82.745 32.648 106.423
396 2 83.239 31.798 106.245
397 1 17.139 58.372 43.700
398 1 18.203 59.093 44.708
399 2 17.968 58.930 43.750
400 1 106.542 88.511 54.469
401 1 105.882 87.306 53.587
402 2 106.153 88.267 53.580
403 1 46.759 32.370 15.756
404 1 46.251 31.037 16.550
405 2 46.919 31.393 15.899
406 1 117.429 96.454 63.129
407 1 115.908 96.203 63.669
408 2 116.646 96.873 63.589
409 1 56.438 53.560 63.866
410 1 56.435 54.725 62.722
411 2 57.013 54.157 63.306
412 1 103.295 14.031 29.106
413 1 102.126 12.944 28.763
414 2 103.110 13.116 28.747
415 1 30.343 28.319 91.275
416 1 28.741 28.443 90.984
417 2 29.595 28.021 90.681
418 1 76.201 39.475 84.369
419 1 75.835 37.883 84.377
420 2 76.580 38.549 84.375
421 1 94.729 71.794 115.617
422 1 95.154 73.208 116.314
423 2 94.490 72.760 115.716
424 1 50.284 1.340 85.109
425 1 49.777 2.837 84.698
426 2 49.622 2.062 85.310
427 1 40.784 76.502 17.489
428 1 39.601 77.625 17.420
429 2 39.804 76.649 17.357
430 1 91.011 95.204 79.608
431 1 90.404 96.650 80.062
432 2 90.270 95.860 79.464
433 1 80.386 15.487 85.744
434 1 79.426 16.727 85.290
435 2 80.367 16.452 85.483
436 1 16.640 39.230 99.163
437 1 17.427 40.649 98.981
438 2 17.393 39.692 98.695
439 1 66.561 63.934 39.930
440 1 66.201 62.358 40.160
441 2 66.114 63.132 39.534
442 1 82.565 66.029 49.880
443 1 83.734 67.084 50.312
444 2 83.453 66.125 50.330
445 1 62.027 1.354 60.937
446 1 60.758 0.618 60.218
447 2 61.745 0.578 60.371
448 1 45.693 98.634 99.071
449 1 46.254 97.810 100.365
450 2 46.172 97.808 99.369
451 1 18.435 57.943 9.096
452 1 16.804 58.025 9.101
453 2 17.647 58.547 8.973
454 1 83.464 67.523 85.550
455 1 84.191 66.074 85.358
456 2 83.312 66.547 85.396
457 1 114.259 107.315 8.876
458 1 113.176 108.526 9.033
459 2 113.677 107.959 8.380
460 1 36.844 33.287 16.517
461 1 35.485 32.583 17.087
462 2 36.288 32.456 16.506
463 1 103.431 7.519 77.601
464 1 101.929 7.416 78.233
465 2 102.881 7.131 78.340
466 1 79.888 24.459 93.078
467 1 80.538 25.930 93.364
468 2 80.389 25.016 93.741
469 1 48.447 35.914 91.931
470 1 47.190 35.289 92.765
471 2 48.184 35.389 92.740
472 1 103.670 1.935 32.663
473 1 102.105 1.769 33.097
474 2 102.810 2.421 32.820
475 1 63.227 101.024 36.348
476 1 63.829 102.539 36.445
477 2 64.064 101.568 36.407
478 1 88.313 117.412 81.641
479 1 86.879 117.169 80.898
480 2 87.721 116.731 81.211
481 1 62.566 118.130 19.582
482 1 64.134 118.471 19.881
483 2 63.490 118.122 19.201
484 1 19.373 90.257 11.699
485 1 17.758 90.330 11.923
486 2 18.598 90.867 11.865
487 1 99.602 30.544 21.292
488 1 100.864 29.739 20.640
489 2 100.000 29.641 21.133
490 1 6.993 69.824 69.010
491 1 8.101 69.455 70.152
492 2 7.130 69.615 69.979
493 1 59.513 18.944 82.233
494 1 59.232 20.551 82.307
495 2 58.811 19.646 82.360
496 1 13.874 13.124 1.903
497 1 13.337 14.366 2.818
498 2 13.123 13.769 2.045
499 1 55.881 78.026 112.471
500 1 54.704 79.149 112.612
501 2 55.582 78.936 112.184
502 1 115.421 75.388 25.526
503 1 114.040 74.804 26.174
504 2 114.886 74.561 25.699
505 1 98.873 38.842 92.404
506 1 98.845 39.972 91.226
507 2 99.187 39.069 91.482
508 1 15.444 34.581 60.299
509 1 14.893 35.802 61.234
510 2 14.910 34.810 61.113
511 1 35.259 36.489 108.688
512 1 34.301 37.345 107.679
513 2 34.525 37.167 108.637
514 1 113.561 113.756 51.602
515 1 114.900 112.941 51.144
516 2 114.540 113.834 51.414
517 1 100.392 72.577 99.718
518 1 98.799 72.928 99.781
519 2 99.518 72.336 100.141
520 1 68.164 46.945 59.699
521 1 67.473 45.467 59.767
522 2 67.369 46.401 59.428
523 1 7.320 78.012 50.652
524 1 7.924 79.052 49.548
525 2 7.157 78.450 49.768
526 1 29.834 89.013 0.843
527 1 30.921 90.116 1.361
528 2 30.302 89.867 0.617
529 1 104.348 70.659 70.675
530 1 103.954 69.432 71.678
531 2 104.691 69.845 71.145
532 1 67.496 11.673 46.700
533 1 69.064 11.766 47.147
534 2 68.352 11.163 46.788
535 1 82.189 117.178 44.184
536 1 83.649 116.654 44.693
537 2 83.162 117.401 44.243
538 1 50.735 38.574 78.487
539 1 49.448 39.087 79.352
540 2 50.446 39.041 79.323
541 1 90.257 104.142 83.665
542 1 89.619 103.150 82.536
543 2 89.410 103.743 83.312
544 1 36.537 70.845 44.483
545 1 36.810 69.352 43.880
546 2 36.457 69.864 44.662
547 1 39.141 5.358 87.977
548 1 38.275 4.667 86.777
549 2 39.030 4.536 87.419
550 1 14.149 71.588 67.288
551 1 15.069 71.343 68.616
552 2 14.647 70.904 67.823
553 1 41.411 13.010 29.871
554 1 42.027 11.730 29.065
555 2 42.196 12.673 29.350
556 1 9.324 59.492 1.528
557 1 8.186 58.395 1.937
558 2 9.141 58.519 1.670
559 1 1.835 60.026 1.310
560 1 2.984 60.171 0.159
561 2 2.803 59.887 1.100
562 1 9.535 1.940 31.574
563 1 7.907 1.869 31.472
564 2 8.679 2.368 31.864
565 1 33.619 34.779 32.860
566 1 32.031 34.407 32.786
567 2 32.709 35.124 32.629
568 1 98.589 11.593 57.256
569 1 98.494 13.221 57.337
570 2 99.070 12.449 57.069
571 1 72.052 100.130 85.515
572 1 71.883 101.607 84.841
573 2 72.503 101.006 85.343
574 1 79.541 57.464 68.444
575 1 78.591 56.156 68.215
576 2 78.607 57.112 68.504
577 1 8.132 106.464 37.566
578 1 9.630 107.040 37.266
579 2 8.705 107.283 37.556
580 1 79.920 29.959 1.115
581 1 79.247 28.478 0.968
582 2 79.058 29.458 1.034
583 1 65.410 100.306 98.335
584 1 63.827 99.904 98.346
585 2 64.760 99.545 98.344
586 1 46.523 108.076 6.221
587 1 47.669 108.597 7.262
588 2 46.869 108.867 6.726
589 1 81.509 19.678 94.303
590 1 81.572 20.973 93.311
591 2 81.348 20.662 94.234
592 1 68.540 77.092 71.102
593 1 69.678 78.258 71.204
594 2 69.497 77.282 71.321
595 1 74.094 11.795 96.859
596 1 75.255 10.876 97.547
597 2 74.270 11.023 97.471
598 1 96.257 68.814 50.229
599 1 96.645 70.360 49.873
600 2 96.100 69.772 50.470
601 1 111.251 20.422 69.813
602 1 112.186 19.146 69.408
603 2 111.321 19.614 69.228
604 1 28.224 66.084 101.618
605 1 27.892 64.493 101.780
606 2 28.394 65.172 101.244
607 1 51.478 89.287 13.618
608 1 50.188 90.285 13.564
609 2 50.859 89.790 13.014
610 1 16.225 37.595 31.760
611 1 16.091 39.222 31.797
612 2 16.700 38.449 31.972
613 1 62.021 11.916 15.159
614 1 63.634 11.669 15.235
615 2 62.797 11.767 15.773
616 1 80.471 119.355 101.709
617 1 79.932 119.839 103.173
618 2 80.227 119.053 102.631
619 1 91.179 119.742 23.774
620 1 91.046 118.127 23.978
621 2 90.583 119.005 24.095
622 1 96.932 110.098 26.116
623 1 96.249 111.451 25.509
624 2 96.283 110.836 26.296
625 1 64.324 29.398 52.679
626 1 64.014 30.228 51.307
627 2 64.733 29.915 51.927
628 1 59.233 112.706 83.436
629 1 58.725 113.994 84.302
630 2 58.523 113.047 84.052
631 1 70.328 9.015 0.000
632 1 71.458 9.331 1.135
633 2 70.676 8.755 0.901
634 1 80.843 22.342 44.468
635 1 82.195 23.256 44.540
636 2 81.766 22.465 44.104
637 1 30.266 113.165 103.593
638 1 29.916 114.713 103.209
639 2 30.633 114.094 103.527
640 1 50.923 89.793 4.685
641 1 50.000 90.419 5.878
642 2 50.125 89.637 5.268
643 1 36.508 35.296 51.780
644 1 37.079 36.692 51.155
645 2 37.240 35.710 51.239
646 1 24.281 91.326 10.306
647 1 24.997 92.464 11.234
648 2 24.385 92.309 10.458
649 1 99.562 19.511 80.763
650 1 100.876 18.597 81.088
651 2 99.885 18.668 81.194
652 1 113.686 28.173 27.500
653 1 112.251 28.763 26.989
654 2 112.813 27.940 27.071
655 1 107.766 5.951 44.338
656 1 106.218 6.388 44.057
657 2 107.030 6.571 44.611
658 1 5.642 92.906 74.445
659 1 6.915 93.930 74.465
660 2 5.927 93.853 74.598
661 1 37.373 58.214 33.686
662 1 36.048 57.260 33.699
663 2 37.047 57.268 33.691
664 1 60.239 16.324 27.905
665 1 60.698 14.764 27.750
666 2 60.138 15.493 27.357
667 1 65.385 16.212 74.417
668 1 65.559 16.123 72.795
669 2 64.900 16.124 73.546
670 1 21.009 10.056 87.433
671 1 20.954 11.201 86.270
672 2 20.838 10.227 86.462
673 1 32.669 18.685 43.510
674 1 32.984 20.275 43.314
675 2 32.455 19.499 42.971
676 1 79.856 51.722 70.151
677 1 81.194 50.859 70.516
678 2 80.218 50.803 70.308
679 1 51.222 90.345 36.270
680 1 49.654 90.789 36.174
681 2 50.278 90.037 36.385
682 1 34.744 61.572 86.759
683 1 36.271 61.749 87.312
684 2 35.511 62.208 86.851
685 1 30.493 100.193 30.683
686 1 31.535 98.941 30.797
687 2 30.573 99.197 30.705
688 1 73.945 16.031 58.607
689 1 72.522 15.811 59.377
690 2 73.294 16.432 59.252
691 1 97.636 74.167 96.178
692 1 98.364 72.966 97.011
693 2 97.570 73.208 96.454
694 1 22.824 68.443 20.292
695 1 22.032 69.871 20.296
696 2 21.923 68.877 20.291
697 1 12.929 55.908 72.287
698 1 11.517 56.728 72.287
699 2 12.512 56.817 72.287
700 1 51.534 13.876 52.160
701 1 51.074 12.376 51.707
702 2 51.012 13.349 51.489
703 1 77.882 45.571 110.447
704 1 77.965 44.216 109.539
705 2 77.963 44.574 110.472
706 1 104.784 94.330 103.239
707 1 104.746 95.519 102.120
708 2 104.190 94.948 102.723
709 1 58.421 20.902 114.220
710 1 59.539 19.779 114.614
711 2 59.401 20.718 114.302
712 1 51.490 6.562 86.435
713 1 50.670 5.344 87.151
714 2 51.547 5.616 86.755
715 1 9.194 104.872 60.323
716 1 8.298 106.098 60.924
717 2 8.283 105.140 60.640
718 1 6.859 70.841 89.110
719 1 8.161 70.639 90.075
720 2 7.305 70.228 89.763
721 1 112.269 85.967 66.813
722 1 113.561 86.479 65.954
723 2 113.029 85.679 66.230
724 1 13.806 93.716 34.622
725 1 13.144 94.370 33.280
726 2 13.870 94.464 33.961
727 1 88.007 19.500 9.724
728 1 88.003 18.520 11.030
729 2 87.428 19.013 10.379
730 1 119.100 114.271 20.289
731 1 118.132 112.987 20.000
732 2 118.447 113.868 19.647
733 1 70.335 35.909 15.722
734 1 71.285 34.771 16.408
735 2 70.506 35.380 16.554
736 1 12.929 68.404 99.240
737 1 12.691 68.989 100.746
738 2 12.348 68.356 100.053
739 1 84.212 42.788 40.765
740 1 83.064 42.710 41.924
741 2 83.592 42.180 41.261
742 1 32.450 46.404 112.909
743 1 30.978 46.972 112.490
744 2 31.854 47.207 112.908
745 1 69.439 25.252 50.576
746 1 68.959 24.096 51.625
747 2 69.745 24.497 51.156
748 1 63.673 12.131 84.895
749 1 62.759 10.793 84.687
750 2 62.737 11.779 84.853
751 1 26.381 85.233 43.975
752 1 26.018 85.063 42.392
753 2 26.000 84.616 43.286
754 1 42.193 29.873 52.466
755 1 42.139 31.501 52.587
756 2 41.593 30.664 52.588
757 1 55.536 43.603 74.946
758 1 56.431 43.746 76.304
759 2 56.290 43.210 75.473
760 1 93.122 114.837 29.251
761 1 91.685 114.746 30.020
762 2 92.196 115.212 29.299
763 1 30.823 90.652 37.547
764 1 32.183 91.531 37.335
765 2 31.186 91.571 37.388
766 1 7.193 9.225 31.932
767 1 6.716 10.785 32.013
768 2 6.412 9.834 32.068
769 1 96.560 59.370 43.005
770 1 96.911 59.784 41.465
771 2 96.330 59.987 42.252
772 1 36.946 52.127 119.915
773 1 37.927 53.414 119.695
774 2 37.834 52.427 119.567
775 1 47.551 113.291 62.257
776 1 48.486 114.471 61.625
777 2 48.353 113.868 62.411
778 1 65.551 27.581 89.050
779 1 66.850 28.434 88.548
780 2 66.550 27.591 88.992
781 1 37.180 26.028 50.129
782 1 38.678 26.558 50.509
783 2 38.160 25.873 49.998
784 1 18.657 92.397 59.572
785 1 19.416 91.777 58.265
786 2 19.526 92.047 59.221
787 1 85.581 16.369 51.820
788 1 86.949 17.179 51.447
789 2 85.968 17.110 51.270
790 1 94.061 101.028 7.343
791 1 93.264 100.049 6.308
792 2 93.233 100.923 6.792
793 1 56.572 112.324 32.051
794 1 57.558 111.664 33.173
795 2 56.837 112.337 33.015
796 1 31.541 60.028 104.726
797 1 29.922 59.968 104.938
798 2 30.744 59.425 104.767
799 1 71.369 43.686 3.810
800 1 71.640 45.293 3.922
801 2 72.039 44.414 3.662
802 1 2.688 84.783 17.834
803 1 2.523 84.619 19.450
804 2 3.124 84.941 18.720
805 1 80.895 77.251 26.591
806 1 80.561 78.558 27.511
807 2 80.286 77.622 27.292
808 1 13.057 97.759 38.638
809 1 13.559 98.790 37.476
810 2 13.577 97.841 37.788
811 1 116.277 99.481 62.550
812 1 117.116 99.096 63.898
813 2 116.809 99.847 63.314
814 1 55.052 28.789 49.900
815 1 53.547 29.304 49.533
816 2 54.356 29.481 50.092
817 1 78.819 11.369 117.994
818 1 78.802 9.912 118.732
819 2 78.516 10.419 117.919
820 1 106.672 105.960 69.268
821 1 105.999 104.489 69.048
822 2 106.819 105.041 68.901
823 1 1.316 103.206 52.487
824 1 2.749 102.675 51.912
825 2 2.249 103.473 52.246
826 1 102.843 47.294 34.004
827 1 104.201 47.338 34.910
828 2 103.680 47.806 34.197
829 1 89.090 30.422 86.113
830 1 90.284 29.307 86.109
831 2 90.014 30.216 85.792
832 1 116.198 110.865 60.039
833 1 116.993 112.290 59.987
834 2 116.901 111.391 59.560
835 1 89.121 60.846 72.148
836 1 90.672 60.336 72.104
837 2 90.078 61.139 72.147
838 1 48.985 27.158 0.005
839 1 48.489 27.156 1.561
840 2 48.344 27.560 0.658
841 1 24.365 119.262 39.281
842 1 25.949 119.616 39.104
843 2 25.023 119.991 39.091
844 1 34.517 74.137 104.948
845 1 34.841 75.082 106.240
846 2 35.168 74.786 105.343
847 1 117.606 84.092 27.199
848 1 118.536 85.142 28.036
849 2 118.343 84.175 27.871
850 1 96.666 99.018 112.301
851 1 96.078 97.537 111.941
852 2 95.846 98.504 112.048
853 1 36.530 28.768 68.019
854 1 35.049 28.831 68.705
855 2 35.879 29.351 68.505
856 1 68.921 94.854 84.961
857 1 67.696 94.631 86.018
858 2 68.428 95.251 85.736
859 1 17.698 51.253 43.704
860 1 19.225 50.839 43.298
861 2 18.415 50.565 43.816
862 1 34.086 17.849 62.406
863 1 33.184 19.084 61.833
864 2 33.192 18.106 62.040
865 1 42.217 108.077 32.641
866 1 42.289 108.533 34.207
867 2 42.149 107.762 33.587
868 1 6.379 102.286 11.476
869 1 5.059 102.373 12.433
870 2 5.930 101.907 12.285
871 1 23.726 16.003 118.140
872 1 24.838 15.407 117.104
873 2 24.182 16.144 117.261
874 1 93.265 12.726 51.905
875 1 92.946 11.567 53.010
876 2 93.565 11.848 52.278
877 1 5.488 10.244 105.830
878 1 4.414 9.162 105.245
879 2 4.531 9.953 105.845
880 1 8.123 17.279 62.444
881 1 9.722 17.317 62.115
882 2 8.937 16.721 62.279
883 1 108.261 49.805 71.531
884 1 108.324 50.869 70.294
885 2 108.325 50.773 71.289
886 1 45.766 61.218 74.839
887 1 47.376 61.035 75.036
888 2 46.481 60.897 75.459
889 1 5.351 30.664 51.661
890 1 6.378 31.929 51.761
891 2 5.641 31.438 52.224
892 1 65.455 60.159 108.616
893 1 66.006 59.326 109.908
894 2 65.450 60.102 109.614
895 1 114.498 56.334 118.641
896 1 116.085 56.133 118.970
897 2 115.160 56.070 119.343
898 1 92.669 38.461 48.751
899 1 94.002 37.717 48.170
900 2 93.525 38.008 48.999
901 1 65.714 57.433 3.129
902 1 65.019 58.765 3.769
903 2 64.850 57.843 3.423
904 1 51.449 59.479 94.711
905 1 52.802 60.151 95.331
906 2 52.341 59.289 95.123
907 1 41.421 37.550 14.621
908 1 42.858 37.300 13.886
909 2 42.215 36.944 14.563
910 1 43.564 108.027 29.353
911 1 42.495 107.196 30.266
912 2 42.601 107.943 29.610
913 1 74.001 2.929 36.416
914 1 73.962 1.648 37.428
915 2 73.978 2.646 37.375
916 1 108.612 58.342 89.503
917 1 108.047 57.368 90.685
918 2 108.686 57.436 89.920
919 1 23.146 19.781 77.268
920 1 21.667 20.473 77.233
921 2 22.162 19.605 77.244
922 1 70.399 45.500 34.144
923 1 68.895 45.439 33.512
924 2 69.704 46.011 33.639
925 1 35.528 106.404 59.359
926 1 33.971 106.691 59.759
927 2 34.673 106.828 59.061
928 1 110.821 64.620 52.888
929 1 109.874 63.360 52.463
930 2 109.886 64.337 52.674
931 1 68.325 94.743 62.943
932 1 68.847 93.343 62.284
933 2 68.861 93.913 63.104
934 1 45.768 65.795 70.415
935 1 45.350 67.045 71.379
936 2 45.001 66.313 70.796
937 1 79.532 63.902 73.987
938 1 79.613 65.180 74.999
939 2 80.015 64.754 74.189
940 1 56.959 10.086 23.901
941 1 55.965 10.020 25.195
942 2 56.420 9.481 24.487
943 1 73.702 36.272 5.188
944 1 72.864 35.685 6.460
945 2 73.776 35.898 6.112
946 1 60.058 91.762 3.533
947 1 61.474 92.565 3.661
948 2 60.482 92.666 3.603
949 1 43.016 93.996 53.208
950 1 43.278 92.792 52.136
951 2 43.262 93.783 52.262
952 1 48.601 10.408 95.746
953 1 47.855 9.103 96.386
954 2 48.626 9.411 95.830
955 1 80.093 113.614 94.429
956 1 81.663 113.799 94.840
957 2 80.819 114.280 94.606
958 1 57.657 75.392 52.461
959 1 58.705 74.223 52.911
960 2 58.392 75.153 53.097
961 1 77.525 68.405 65.815
962 1 78.356 69.806 65.929
963 2 77.503 69.342 66.165
964 1 37.869 79.770 4.885
965 1 39.226 78.887 5.094
966 2 38.856 79.813 5.040
967 1 31.065 58.532 94.102
968 1 32.624 58.918 94.394
969 2 31.722 59.283 94.168
970 1 2.700 2.666 12.627
971 1 2.417 1.228 13.348
972 2 3.118 1.813 12.942
973 1 91.419 64.824 30.649
974 1 90.230 65.139 29.574
975 2 91.211 65.211 29.750
976 1 76.077 69.443 94.705
977 1 75.768 69.934 93.178
978 2 76.083 70.225 94.081
979 1 29.347 19.120 57.937
980 1 30.683 18.393 57.342
981 2 30.036 18.414 58.104
982 1 110.387 30.404 41.787
983 1 111.576 30.642 40.693
984 2 111.377 30.401 41.642
985 1 59.296 36.506 36.389
986 1 60.646 36.624 37.301
987 2 59.886 37.133 36.899
988 1 22.506 97.739 22.222
989 1 20.961 97.308 22.526
990 2 21.814 97.630 22.935
991 1 57.649 65.929 63.904
992 1 58.170 65.243 62.517
993 2 57.592 65.118 63.322
994 1 94.906 45.066 9.955
995 1 95.536 45.710 11.317
996 2 95.103 44.901 10.921
997 1 39.491 115.471 57.571
998 1 38.628 114.464 58.524
999 2 38.847 114.705 57.579
1000 1 48.045 13.480 47.037
1001 1 46.976 12.689 46.090
1002 2 47.334 12.777 47.018
1003 1 2.242 77.952 16.924
1004 1 2.648 76.702 17.893
1005 2 3.004 77.442 17.322
1006 1 44.337 21.850 110.164
1007 1 43.897 22.962 109.051
1008 2 44.622 22.677 109.678
1009 1 19.261 72.893 8.145
1010 1 20.187 74.238 8.090
1011 2 19.249 73.893 8.126
1012 1 45.993 71.236 65.417
1013 1 44.403 70.992 65.134
1014 2 45.163 70.788 65.750
1015 1 45.457 27.750 102.543
1016 1 45.560 29.050 101.561
1017 2 46.083 28.395 102.106
1018 1 15.248 4.390 39.219
1019 1 15.665 3.657 37.820
1020 2 15.445 4.533 38.248
1021 1 49.623 90.261 74.781
1022 1 48.689 91.560 74.452
1023 2 49.235 91.104 75.154
1024 1 51.076 91.974 45.716
1025 1 50.887 90.380 46.016
1026 2 50.412 91.255 45.921
1027 1 10.170 91.620 111.321
1028 1 11.522 90.703 111.345
1029 2 10.933 91.303 111.885
1030 1 6.414 109.721 5.183
1031 1 7.712 110.642 5.550
1032 2 6.761 110.657 5.242
1033 1 25.798 44.944 37.790
1034 1 24.319 44.307 38.061
1035 2 25.055 44.405 37.392
1036 1 105.936 52.812 33.896
1037 1 107.267 53.760 33.894
1038 2 106.267 53.756 33.888
1039 1 43.198 105.259 94.792
1040 1 42.213 104.437 93.782
1041 2 42.911 104.349 94.491
1042 1 96.617 70.651 20.165
1043 1 96.109 69.694 21.387
1044 2 95.831 70.167 20.551
1045 1 36.229 3.233 28.301
1046 1 35.470 4.113 27.154
1047 2 36.172 3.421 27.321
1048 1 80.398 81.024 1.791
1049 1 81.760 81.290 0.931
1050 2 80.907 81.698 1.255
1051 1 52.312 38.439 14.603
1052 1 52.470 37.961 16.157
1053 2 52.463 38.749 15.543
1054 1 34.268 3.230 4.281
1055 1 34.858 4.046 5.567
1056 2 34.295 3.272 5.280
1057 1 7.954 50.505 42.397
1058 1 7.796 51.935 43.170
1059 2 7.303 51.150 42.797
1060 1 67.682 110.873 4.474
1061 1 68.519 109.511 4.142
1062 2 68.585 110.502 4.260
1063 1 77.833 102.940 10.545
1064 1 78.102 101.993 9.243
1065 2 78.262 102.894 9.643
1066 1 39.648 98.631 101.980
1067 1 41.029 97.766 102.077
1068 2 40.042 97.748 102.234
1069 1 90.936 103.687 91.693
1070 1 90.205 105.118 91.404
1071 2 91.029 104.681 91.761
1072 1 61.320 80.459 13.945
1073 1 61.280 79.506 15.270
1074 2 61.874 79.930 14.588
1075 1 23.298 7.618 98.355
1076 1 24.398 6.805 97.463
1077 2 24.037 7.710 97.687
1078 1 39.144 26.493 106.165
1079 1 37.888 27.304 105.509
1080 2 38.765 27.399 105.977
1081 1 35.399 76.051 108.700
1082 1 36.056 77.214 109.640
1083 2 35.938 76.893 108.701
1084 1 34.403 44.795 85.699
1085 1 34.905 44.203 87.136
1086 2 35.202 44.606 86.271
1087 1 7.127 42.236 22.299
1088 1 8.052 41.166 23.115
1089 2 7.118 41.396 22.842
1090 1 107.056 39.355 70.890
1091 1 106.254 40.466 70.001
1092 2 106.464 40.161 70.929
1093 1 82.160 48.997 82.949
1094 1 81.005 49.911 82.245
1095 2 81.989 49.788 82.361
1096 1 11.959 1.116 73.437