LAMMPS Description

13332  atoms
0  bonds
0  angles
0  dihedrals
0  impropers

2  atom types
0  bond types
0  angle types
0  dihedral types
0  improper types

0.0 80.0 xlo xhi
0.0 80.0 ylo yhi
0.0 80.0 zlo zhi

Masses

1 1.00794  # H
2 15.9994  # O

Atoms

1 1 33.111 56.548 18.121
2 1 34.277 57.287 18.993
3 2 34.096 56.706 18.200
4 1 20.278 6.454 25.583
5 1 20.433 8.080 25.610
6 2 20.805 7.219 25.955
7 1 53.634 48.981 53.807
8 1 54.800 47.838 53.756
9 2 54.615 48.819 53.700
10 1 63.194 39.245 39.642
11 1 64.475 38.990 38.662
12 2 63.628 38.595 39.018
13 1 78.175 74.529 33.109
14 1 77.392 74.721 34.529
15 2 77.300 74.760 33.535
16 1 52.109 4.513 2.689
17 1 53.157 5.745 2.917
18 2 52.421 5.211 3.333
19 1 73.417 33.205 33.485
20 1 72.566 32.974 34.860
21 2 72.789 33.629 34.138
22 1 49.678 9.593 63.792
23 1 48.151 10.057 64.141
24 2 49.090 10.373 64.007
25 1 18.041 34.716 27.109
26 1 18.563 35.716 28.289
27 2 17.904 35.605 27.546
28 1 76.177 27.502 18.064
29 1 75.508 26.019 17.926
30 2 76.367 26.521 18.021
31 1 64.097 51.184 2.412
32 1 65.245 52.278 2.802
33 2 64.754 51.844 2.047
34 1 39.989 46.655 50.868
35 1 41.508 47.235 51.022
36 2 40.813 46.648 51.435
37 1 20.911 37.453 79.147
38 1 20.915 35.841 78.886
39 2 20.623 36.567 79.509
40 1 28.209 50.756 6.217
41 1 28.198 52.367 5.945
42 2 28.779 51.560 6.044
43 1 26.513 24.297 77.549
44 1 27.848 23.369 77.708
45 2 26.961 23.599 78.108
46 1 53.393 61.700 41.353
47 1 52.399 62.896 41.853
48 2 53.305 62.687 41.486
49 1 36.978 35.732 16.479
50 1 36.943 36.483 15.029
51 2 37.054 35.603 15.490
52 1 13.183 31.473 31.983
53 1 12.199 32.776 32.003
54 2 12.327 31.855 31.636
55 1 69.602 44.531 48.682
56 1 70.884 43.576 49.014
57 2 70.481 44.196 48.342
58 1 15.409 71.245 70.290
59 1 16.869 71.968 70.182
60 2 16.397 71.096 70.307
61 1 22.234 33.661 19.931
62 1 23.428 34.473 20.693
63 2 22.533 34.558 20.257
64 1 41.371 34.950 24.525
65 1 41.261 36.560 24.776
66 2 40.774 35.689 24.837
67 1 27.839 71.883 0.809
68 1 29.386 72.406 0.773
69 2 28.792 71.626 0.969
70 1 7.612 3.433 3.048
71 1 8.289 2.539 4.235
72 2 8.203 3.459 3.854
73 1 54.504 76.118 55.308
74 1 54.387 75.597 56.851
75 2 54.645 76.365 56.267
76 1 69.548 8.283 30.441
77 1 70.422 6.919 30.647
78 2 69.511 7.283 30.456
79 1 38.552 11.651 1.500
80 1 38.104 10.249 2.208
81 2 38.821 10.705 1.682
82 1 16.093 17.202 2.894
83 1 17.087 17.873 4.003
84 2 16.956 17.096 3.389
85 1 36.152 44.035 11.940
86 1 35.357 42.647 12.271
87 2 35.254 43.597 11.977
88 1 1.939 72.134 60.312
89 1 2.715 72.633 61.659
90 2 2.688 71.935 60.945
91 1 31.083 11.858 32.157
92 1 30.652 10.284 32.214
93 2 31.423 10.917 32.148
94 1 23.662 71.843 69.354
95 1 24.756 71.101 70.312
96 2 24.114 70.975 69.557
97 1 38.654 49.867 55.943
98 1 40.241 49.851 55.558
99 2 39.432 49.284 55.709
100 1 9.008 62.338 53.892
101 1 7.499 61.761 54.127
102 2 8.033 62.535 53.789
103 1 70.667 15.049 51.033
104 1 72.296 14.964 51.110
105 2 71.442 14.523 51.384
106 1 14.385 70.993 0.893
107 1 13.171 71.939 0.346
108 2 13.392 71.083 0.812
109 1 45.519 72.518 13.825
110 1 45.457 74.148 13.751
111 2 44.912 73.312 13.791
112 1 0.968 16.006 11.625
113 1 1.123 17.511 12.240
114 2 1.374 16.909 11.482
115 1 37.220 13.089 31.979
116 1 38.590 12.525 32.666
117 2 38.096 13.347 32.387
118 1 30.409 52.589 21.962
119 1 30.892 54.146 21.858
120 2 30.151 53.506 21.657
121 1 8.719 27.199 44.366
122 1 9.218 27.388 45.909
123 2 9.450 26.999 45.018
124 1 46.806 65.369 43.148
125 1 45.176 65.288 43.095
126 2 45.961 65.904 43.148
127 1 26.362 18.613 50.715
128 1 27.900 18.066 50.675
129 2 27.322 18.864 50.841
130 1 65.677 29.557 62.043
131 1 64.773 28.197 62.024
132 2 65.629 28.613 61.717
133 1 30.339 18.135 24.091
134 1 29.230 19.028 24.891
135 2 30.200 18.942 24.665
136 1 76.022 73.283 71.421
137 1 74.419 73.128 71.693
138 2 75.111 73.551 71.108
139 1 28.664 24.940 79.999
140 1 28.450 26.518 79.638
141 2 29.100 25.759 79.626
142 1 52.225 75.614 49.518
143 1 51.542 75.745 48.040
144 2 52.059 75.145 48.650
145 1 57.240 49.557 50.983
146 1 57.180 50.582 52.253
147 2 57.747 50.245 51.502
148 1 41.935 42.788 8.490
149 1 42.066 42.767 10.117
150 2 41.859 42.218 9.308
151 1 4.770 54.151 34.135
152 1 4.141 55.525 33.517
153 2 4.668 54.702 33.307
154 1 69.310 66.041 55.462
155 1 68.434 67.327 54.969
156 2 68.434 66.334 55.080
157 1 69.356 60.211 6.528
158 1 70.458 60.912 7.508
159 2 70.178 60.779 6.558
160 1 51.044 38.474 40.104
161 1 49.895 38.787 38.986
162 2 50.382 39.150 39.780
163 1 65.190 4.323 36.839
164 1 65.575 2.743 36.688
165 2 65.943 3.666 36.793
166 1 51.188 18.736 73.939
167 1 52.583 19.582 74.009
168 2 52.134 18.727 74.265
169 1 79.954 68.499 78.091
170 1 79.728 70.091 78.379
171 2 79.270 69.224 78.184
172 1 64.808 18.499 15.211
173 1 65.462 17.057 14.812
174 2 64.609 17.541 15.004
175 1 26.766 58.251 22.073
176 1 27.738 57.125 21.400
177 2 27.188 57.940 21.221
178 1 43.014 46.965 1.553
179 1 43.598 48.331 2.232
180 2 42.807 47.917 1.782
181 1 49.812 49.501 77.903
182 1 51.430 49.294 77.837
183 2 50.620 49.560 77.316
184 1 66.129 70.148 31.523
185 1 65.088 69.095 32.213
186 2 65.878 69.686 32.374
187 1 4.334 58.639 67.508
188 1 4.527 57.887 66.072
189 2 4.829 58.652 66.639
190 1 65.079 17.758 40.491
191 1 63.872 18.227 39.497
192 2 64.285 17.449 39.967
193 1 23.648 72.033 48.703
194 1 24.088 71.604 47.190
195 2 24.221 71.417 48.162
196 1 62.179 69.129 10.827
197 1 63.034 70.049 11.870
198 2 63.098 69.397 11.117
199 1 56.388 41.004 61.656
200 1 56.598 39.524 62.312
201 2 55.993 40.318 62.267
202 1 21.910 13.254 46.120
203 1 22.251 12.768 47.641
204 2 21.590 12.706 46.894
205 1 15.997 70.858 27.183
206 1 14.542 70.660 27.898
207 2 15.047 71.171 27.203
208 1 71.753 59.750 74.111
209 1 72.394 61.096 74.779
210 2 71.608 60.724 74.286
211 1 64.543 26.450 4.896
212 1 65.430 26.012 3.597
213 2 64.560 25.884 4.071
214 1 4.716 32.287 50.228
215 1 3.151 32.741 50.338
216 2 4.090 33.067 50.235
217 1 27.629 60.805 4.858
218 1 29.252 60.984 4.823
219 2 28.503 60.322 4.811
220 1 77.872 47.072 41.801
221 1 76.650 48.150 41.697
222 2 77.357 47.666 41.182
223 1 14.662 32.734 33.570
224 1 15.699 33.430 32.518
225 2 14.760 33.431 32.859
226 1 10.763 19.680 36.177
227 1 9.736 18.503 36.653
228 2 10.432 18.756 35.983
229 1 51.085 53.171 40.107
230 1 50.002 52.064 39.588
231 2 50.113 52.983 39.964
232 1 21.158 8.933 37.010
233 1 21.335 7.323 37.223
234 2 21.131 8.189 37.678
235 1 52.544 20.331 48.230
236 1 53.646 19.280 47.638
237 2 52.811 19.368 48.181
238 1 2.753 67.523 6.234
239 1 1.601 66.367 6.273
240 2 2.586 66.538 6.269
241 1 3.428 49.656 33.796
242 1 3.138 48.085 34.137
243 2 3.722 48.715 33.626
244 1 21.347 14.502 4.985
245 1 21.890 15.188 6.364
246 2 22.152 14.660 5.557
247 1 48.219 52.545 35.354
248 1 49.510 51.828 36.053
249 2 48.564 52.118 36.191
250 1 15.452 12.290 5.781
251 1 16.514 11.056 5.910
252 2 16.422 12.045 5.798
253 1 59.587 75.235 39.827
254 1 60.917 75.478 38.910
255 2 60.263 75.910 39.530
256 1 11.236 7.830 16.243
257 1 11.385 9.303 16.932
258 2 10.804 8.494 16.854
259 1 44.484 63.613 28.257
260 1 43.385 64.648 27.634
261 2 44.347 64.380 27.629
262 1 14.322 29.885 52.537
263 1 13.323 30.962 51.824
264 2 13.725 30.673 52.692
265 1 27.085 29.352 59.063
266 1 26.301 30.609 59.749
267 2 27.196 30.252 59.485
268 1 55.478 16.280 10.210
269 1 56.724 15.457 9.548
270 2 56.437 16.018 10.324
271 1 48.917 10.522 57.859
272 1 50.318 10.444 58.694
273 2 49.377 10.779 58.709
274 1 43.829 71.554 77.122
275 1 42.950 70.674 76.063
276 2 43.107 71.591 76.430
277 1 43.811 36.262 8.863
278 1 43.714 35.487 10.297
279 2 43.375 36.261 9.763
280 1 54.568 16.405 68.918
281 1 54.857 18.010 68.821
282 2 54.145 17.310 68.868
283 1 62.968 23.669 40.668
284 1 62.344 24.084 42.119
285 2 63.156 24.125 41.539
286 1 73.232 43.656 25.300
287 1 73.204 44.210 23.765
288 2 73.207 43.391 24.336
289 1 31.019 73.205 71.300
290 1 32.027 71.926 71.174
291 2 31.075 72.206 71.291
292 1 76.624 53.018 51.841
293 1 75.390 54.058 51.586
294 2 75.645 53.093 51.649
295 1 64.433 16.301 54.282
296 1 63.018 16.500 55.073
297 2 63.538 15.896 54.470
298 1 54.004 33.586 45.652
299 1 53.676 31.997 45.464
300 2 53.321 32.924 45.342
301 1 41.047 37.337 63.809
302 1 39.955 36.691 62.780
303 2 40.522 37.491 62.971
304 1 63.724 67.775 34.536
305 1 62.317 66.981 34.771
306 2 63.012 67.227 34.097
307 1 46.464 40.743 8.247
308 1 46.047 41.864 7.135
309 2 46.049 41.642 8.109
310 1 17.100 65.482 16.163
311 1 17.920 64.657 15.017
312 2 17.396 65.486 15.208
313 1 48.015 23.789 0.548
314 1 47.894 24.454 2.034
315 2 47.425 24.313 1.163
316 1 19.775 77.989 37.620
317 1 18.466 78.950 37.789
318 2 19.321 78.817 37.290
319 1 52.035 45.430 22.267
320 1 51.785 46.110 23.730
321 2 51.534 45.352 23.129
322 1 71.613 3.638 13.936
323 1 72.386 2.209 13.770
324 2 71.539 2.649 14.066
325 1 70.872 0.555 6.287
326 1 69.906 0.000 5.093
327 2 70.492 0.756 5.384
328 1 29.030 52.890 53.587
329 1 30.211 53.998 53.371
330 2 29.967 53.034 53.267
331 1 28.581 27.271 6.886
332 1 28.447 25.897 6.015
333 2 29.088 26.529 6.447
334 1 3.822 79.654 10.248
335 1 4.587 78.255 10.599
336 2 3.701 78.674 10.406
337 1 44.117 61.789 39.878
338 1 42.935 60.720 40.233
339 2 43.918 60.895 40.279
340 1 52.216 58.660 16.341
341 1 52.139 60.288 16.438
342 2 52.749 59.497 16.461
343 1 59.689 20.215 11.522
344 1 58.212 19.709 11.999
345 2 58.881 20.448 12.063
346 1 29.905 47.972 13.907
347 1 28.547 48.639 14.521
348 2 29.344 48.799 13.940
349 1 45.357 70.931 3.636
350 1 46.323 72.092 3.015
351 2 46.271 71.337 3.667
352 1 52.750 31.450 19.191
353 1 54.355 31.170 19.309
354 2 53.508 30.887 18.860
355 1 72.574 22.966 27.798
356 1 74.109 22.531 27.449
357 2 73.382 22.479 28.132
358 1 27.594 72.075 16.776
359 1 28.487 70.982 17.596
360 2 28.426 71.938 17.313
361 1 29.617 50.654 32.531
362 1 30.888 49.734 32.986
363 2 29.957 49.717 32.622
364 1 70.817 79.893 51.470
365 1 72.345 79.338 51.322
366 2 71.379 79.104 51.222
367 1 2.062 43.844 4.397
368 1 1.959 42.687 5.545
369 2 1.448 43.378 5.035
370 1 50.502 48.773 26.987
371 1 49.682 47.401 26.649
372 2 50.124 48.206 26.254
373 1 9.200 16.921 7.255
374 1 9.926 16.019 8.407
375 2 9.909 16.238 7.432
376 1 47.909 1.751 72.420
377 1 49.038 2.705 71.725
378 2 48.181 2.697 72.239
379 1 66.322 38.034 47.228
380 1 65.783 38.636 45.809
381 2 65.944 38.841 46.773
382 1 66.863 3.795 2.496
383 1 67.400 2.686 3.567
384 2 66.997 2.818 2.662
385 1 62.514 22.223 56.257
386 1 64.128 22.469 56.232
387 2 63.234 22.916 56.229
388 1 45.184 36.120 51.914
389 1 46.408 35.044 52.002
390 2 45.460 35.179 51.718
391 1 24.072 5.717 22.548
392 1 22.444 5.741 22.427
393 2 23.250 6.268 22.693
394 1 34.279 11.806 71.086
395 1 33.737 12.611 69.773
396 2 33.464 12.104 70.590
397 1 66.192 67.369 59.869
398 1 65.579 66.264 60.903
399 2 65.912 66.415 59.972
400 1 58.808 7.435 49.402
401 1 57.438 6.550 49.329
402 2 57.809 7.476 49.394
403 1 10.384 75.030 0.858
404 1 9.355 74.036 0.070
405 2 9.854 74.901 0.020
406 1 8.309 5.085 25.696
407 1 9.939 5.035 25.765
408 2 9.144 5.636 25.701
409 1 12.858 9.006 3.550
410 1 14.195 8.124 3.867
411 2 13.196 8.107 3.830
412 1 71.903 41.697 37.328
413 1 71.311 41.198 38.765
414 2 71.814 40.918 37.948
415 1 55.298 44.386 46.889
416 1 56.264 43.080 46.719
417 2 56.225 44.078 46.675
418 1 17.957 42.132 71.765
419 1 19.059 41.580 72.837
420 2 18.093 41.567 72.579
421 1 2.497 55.253 30.620
422 1 4.032 54.897 31.048
423 2 3.142 55.204 31.383
424 1 5.515 1.231 12.856
425 1 3.952 1.075 12.411
426 2 4.740 0.600 12.800
427 1 31.530 42.830 18.216
428 1 31.704 44.324 18.853
429 2 32.184 43.487 18.593
430 1 7.777 38.526 25.580
431 1 6.460 38.956 26.444
432 2 7.436 39.120 26.309
433 1 42.428 49.169 48.667
434 1 44.055 49.258 48.555
435 2 43.210 49.089 48.049
436 1 6.028 59.527 78.694
437 1 5.104 60.389 79.727
438 2 5.249 60.150 78.768
439 1 52.129 79.131 5.282
440 1 53.733 78.889 5.473
441 2 52.833 78.456 5.505
442 1 11.679 5.425 75.780
443 1 10.299 4.554 75.712
444 2 10.681 5.470 75.829
445 1 77.951 10.409 59.209
446 1 76.536 11.026 58.677
447 2 76.956 10.364 59.297
448 1 76.907 58.591 9.893
449 1 75.382 58.040 10.091
450 2 76.345 57.777 10.047
451 1 74.866 79.334 38.802
452 1 76.432 78.898 38.647
453 2 75.518 78.582 38.901
454 1 4.238 23.362 51.052
455 1 3.730 23.150 52.590
456 2 4.244 22.741 51.836
457 1 54.126 42.049 2.800
458 1 52.558 41.630 2.982
459 2 53.181 42.318 2.612
460 1 15.058 3.387 60.556
461 1 14.351 3.541 62.020
462 2 14.838 4.025 61.294
463 1 54.733 24.600 55.313
464 1 53.446 24.857 54.342
465 2 53.858 24.229 55.001
466 1 27.275 66.772 18.489
467 1 28.435 67.809 18.985
468 2 28.252 66.985 18.450
469 1 55.255 7.699 32.901
470 1 56.646 7.746 32.046
471 2 55.907 7.156 32.371
472 1 58.964 0.660 15.951
473 1 59.576 2.130 15.588
474 2 59.805 1.189 15.835
475 1 37.497 25.169 43.583
476 1 39.074 25.321 43.186
477 2 38.279 25.792 43.569
478 1 75.805 10.332 19.377
479 1 74.711 9.122 19.315
480 2 75.685 9.339 19.370
481 1 71.559 25.879 26.654
482 1 73.111 25.374 26.708
483 2 72.515 26.166 26.584
484 1 3.761 51.130 2.871
485 1 4.873 50.849 4.033
486 2 4.737 51.009 3.056
487 1 41.746 4.129 70.342
488 1 40.964 4.293 71.766
489 2 41.162 4.729 70.889
490 1 2.103 51.659 34.983
491 1 1.280 50.833 33.839
492 2 1.468 50.904 34.818
493 1 22.550 68.100 27.496
494 1 22.364 67.795 29.090
495 2 21.889 68.034 28.244
496 1 10.745 27.884 24.642
497 1 10.043 27.684 23.181
498 2 9.881 27.922 24.138
499 1 56.940 72.903 71.758
500 1 55.967 71.698 72.275
501 2 56.873 72.110 72.364
502 1 25.580 16.593 39.888
503 1 25.893 16.010 41.381
504 2 25.428 16.731 40.868
505 1 34.858 69.322 4.912
506 1 35.779 70.656 4.718
507 2 35.778 69.702 5.014
508 1 32.080 18.645 76.871
509 1 32.008 18.550 78.500
510 2 31.963 19.168 77.716
511 1 47.119 4.299 4.573
512 1 47.860 5.005 5.846
513 2 47.815 4.963 4.849
514 1 61.523 30.321 29.946
515 1 62.964 31.029 30.248
516 2 62.488 30.155 30.154
517 1 67.678 69.649 15.062
518 1 66.764 69.802 13.718
519 2 67.027 69.186 14.460
520 1 44.775 55.546 75.983
521 1 43.780 54.272 76.215
522 2 44.705 54.549 75.956
523 1 52.967 78.157 41.661
524 1 52.489 79.108 42.899
525 2 53.137 79.016 42.144
526 1 68.741 52.886 47.011
527 1 67.345 53.001 46.172
528 2 67.988 52.369 46.604
529 1 75.781 45.699 61.327
530 1 76.839 46.311 62.411
531 2 76.381 46.471 61.537
532 1 23.642 20.734 68.183
533 1 25.106 21.143 68.780
534 2 24.553 20.394 68.416
535 1 31.546 4.955 7.340
536 1 32.240 4.252 8.641
537 2 31.798 4.083 7.761
538 1 28.207 18.553 28.135
539 1 27.021 17.437 28.268
540 2 27.326 18.250 27.772
541 1 28.315 22.362 17.676
542 1 28.852 21.129 16.749
543 2 29.038 21.680 17.562
544 1 46.460 33.963 3.233
545 1 47.332 32.862 2.400
546 2 46.681 33.617 2.322
547 1 53.797 1.985 6.670
548 1 54.360 0.452 6.696
549 2 53.589 1.034 6.439
550 1 51.514 23.200 29.507
551 1 52.269 21.839 29.011
552 2 51.943 22.741 28.729
553 1 72.180 19.946 36.583
554 1 73.173 21.197 36.243
555 2 72.229 20.934 36.438
556 1 48.226 29.937 69.131
557 1 46.728 29.867 69.776
558 2 47.248 29.912 68.924
559 1 49.424 24.905 13.187
560 1 50.513 24.980 14.402
561 2 49.621 25.299 14.085
562 1 42.303 9.956 75.852
563 1 42.599 8.847 77.014
564 2 42.972 9.632 76.522
565 1 14.114 30.124 61.923
566 1 14.629 30.903 63.262
567 2 14.872 30.229 62.566
568 1 47.973 33.694 28.355
569 1 46.749 32.946 27.575
570 2 47.504 32.822 28.218
571 1 66.970 41.415 10.093
572 1 68.417 40.913 9.526
573 2 67.608 41.465 9.325
574 1 61.017 36.565 67.262
575 1 62.421 36.592 66.427
576 2 62.005 36.415 67.319
577 1 55.699 1.300 42.352
578 1 54.705 0.550 41.295
579 2 55.659 0.710 41.546
580 1 47.289 42.682 2.474
581 1 47.594 44.035 3.336
582 2 46.881 43.497 2.886
583 1 44.612 32.231 35.422
584 1 44.773 33.563 36.353
585 2 44.662 33.230 35.417
586 1 74.409 61.770 52.718
587 1 75.854 62.338 52.213
588 2 75.273 61.527 52.277
589 1 54.552 10.489 42.222
590 1 53.282 11.514 42.155
591 2 54.214 11.390 42.495
592 1 38.473 0.513 45.267
593 1 37.124 0.985 46.058
594 2 37.736 0.216 45.875
595 1 42.017 5.662 9.772
596 1 41.386 7.157 9.585
597 2 41.718 6.345 9.105
598 1 24.763 27.286 71.438
599 1 25.012 28.771 70.807
600 2 24.328 28.067 70.990
601 1 23.891 48.166 36.316
602 1 24.706 49.163 37.321
603 2 24.588 48.882 36.369
604 1 1.248 71.647 45.496
605 1 2.309 70.839 46.438
606 2 2.203 71.591 45.789
607 1 66.021 62.460 71.943
608 1 65.969 63.827 71.052
609 2 65.420 63.105 71.470
610 1 26.126 61.962 9.389
611 1 26.213 60.922 10.644
612 2 26.441 61.059 9.681
613 1 17.706 37.487 36.262
614 1 16.111 37.482 35.911
615 2 16.790 37.672 36.619
616 1 44.934 47.939 51.778
617 1 46.234 46.961 51.637
618 2 45.911 47.905 51.570
619 1 33.192 48.384 45.526
620 1 32.138 49.371 44.764
621 2 33.001 49.330 45.266
622 1 26.492 32.839 11.825
623 1 25.700 32.593 10.418
624 2 25.883 32.221 11.327
625 1 74.081 34.441 68.812
626 1 74.089 36.064 68.630
627 2 73.518 35.267 68.826
628 1 74.976 40.257 23.279
629 1 74.433 41.794 23.181
630 2 74.730 41.071 23.804
631 1 27.578 37.193 42.360
632 1 28.164 36.754 43.820
633 2 28.376 37.222 42.963
634 1 18.317 73.400 49.525
635 1 16.744 73.068 49.237
636 2 17.677 72.716 49.173
637 1 0.899 60.535 53.095
638 1 2.503 60.638 53.386
639 2 1.734 61.050 52.898
640 1 16.160 42.973 12.635
641 1 16.317 42.827 11.016
642 2 16.186 43.471 11.769
643 1 33.185 42.172 26.876
644 1 34.015 43.471 26.337
645 2 33.963 42.473 26.325
646 1 15.742 47.516 67.371
647 1 17.368 47.369 67.325
648 2 16.503 46.868 67.337
649 1 57.857 62.416 17.392
650 1 57.415 62.013 18.912
651 2 57.546 62.771 18.273
652 1 64.285 60.323 62.166
653 1 63.218 60.916 63.249
654 2 63.450 60.861 62.279
655 1 25.858 34.461 66.714
656 1 26.467 35.218 65.402
657 2 25.647 35.078 65.955
658 1 42.063 16.419 15.163
659 1 40.579 16.870 14.653
660 2 41.139 16.666 15.455
661 1 69.039 17.286 48.197
662 1 68.498 17.289 46.656
663 2 69.199 17.641 47.276
664 1 34.330 2.636 0.738
665 1 33.596 1.262 0.247
666 2 33.471 2.124 0.738
667 1 78.902 78.331 7.954
668 1 77.310 78.430 8.301
669 2 78.058 78.837 7.777
670 1 76.628 2.507 54.549
671 1 77.983 3.398 54.741
672 2 76.997 3.436 54.581
673 1 33.267 33.574 2.870
674 1 34.512 33.360 1.835
675 2 34.261 33.498 2.793
676 1 54.984 39.007 21.469
677 1 56.096 39.759 20.539
678 2 55.212 39.858 20.994
679 1 4.512 22.451 74.477
680 1 5.506 23.641 73.965
681 2 4.577 23.275 73.914
682 1 43.793 3.480 78.612
683 1 42.316 2.786 78.674
684 2 42.808 3.654 78.628
685 1 24.180 73.992 39.300
686 1 25.567 73.960 38.439
687 2 24.584 73.786 38.409
688 1 10.923 8.916 8.706
689 1 10.007 10.265 8.609
690 2 10.914 9.909 8.831
691 1 56.947 15.421 37.558
692 1 56.329 16.594 38.511
693 2 56.216 15.650 38.201
694 1 44.986 48.884 14.858
695 1 45.621 50.282 14.301
696 2 45.832 49.401 14.722
697 1 69.680 48.444 57.261
698 1 69.184 49.941 56.838
699 2 69.976 49.336 56.921
700 1 44.988 37.738 14.149
701 1 44.464 39.284 14.111
702 2 44.442 38.427 14.625
703 1 58.831 14.971 28.197
704 1 58.789 13.563 27.371
705 2 58.569 14.007 28.239
706 1 20.948 18.195 61.392
707 1 21.201 16.918 60.406
708 2 20.527 17.585 60.720
709 1 40.229 77.217 4.787
710 1 40.276 78.843 4.640
711 2 39.679 78.041 4.650
712 1 3.625 52.826 71.242
713 1 2.481 51.678 71.044
714 2 2.671 52.584 71.421
715 1 4.611 76.347 49.031
716 1 5.011 75.446 50.333
717 2 4.314 75.608 49.635
718 1 56.485 0.517 44.783
719 1 57.833 1.431 44.904
720 2 56.842 1.451 44.776
721 1 57.412 2.266 46.903
722 1 57.659 3.870 47.088
723 2 57.110 3.177 46.621
724 1 79.983 8.791 43.656
725 1 78.590 8.626 44.492
726 2 79.265 9.280 44.153
727 1 74.436 16.670 60.162
728 1 74.544 16.363 61.763
729 2 74.827 16.061 60.853
730 1 12.747 27.480 68.485
731 1 12.632 27.335 70.108
732 2 12.261 27.026 69.233
733 1 48.972 12.831 0.438
734 1 48.600 14.384 0.781
735 2 48.285 13.437 0.840
736 1 13.898 23.710 61.682
737 1 14.945 23.933 60.449
738 2 14.852 23.620 61.393
739 1 69.923 63.998 78.430
740 1 69.517 62.460 78.060
741 2 69.526 63.404 77.731
742 1 28.008 21.178 10.625
743 1 28.433 20.867 12.171
744 2 28.493 21.531 11.426
745 1 7.114 12.922 50.613
746 1 8.185 13.188 51.815
747 2 7.546 13.622 51.181
748 1 74.836 50.286 32.855
749 1 74.477 51.040 34.258
750 2 75.151 50.959 33.525
751 1 68.644 20.833 65.913
752 1 67.943 22.300 66.068
753 2 68.810 21.819 65.940
754 1 35.350 26.137 76.291
755 1 36.787 25.372 76.426
756 2 36.343 26.257 76.285
757 1 65.413 31.549 2.203
758 1 64.531 32.443 3.248
759 2 65.348 32.430 2.672
760 1 26.282 72.368 40.080
761 1 25.998 70.760 40.058
762 2 25.573 71.664 40.034
763 1 6.761 16.123 29.902
764 1 5.944 17.277 29.085
765 2 5.857 16.421 29.593
766 1 77.754 12.479 39.118
767 1 76.268 11.847 39.366
768 2 76.789 12.695 39.267
769 1 42.184 79.912 62.112
770 1 43.765 79.505 62.131
771 2 42.990 79.743 61.546
772 1 10.046 73.599 79.992
773 1 8.715 72.652 80.000
774 2 9.701 72.673 79.838
775 1 15.168 9.044 20.519
776 1 14.054 8.648 19.392
777 2 15.029 8.784 19.563
778 1 37.214 74.949 45.223
779 1 38.492 75.155 46.217
780 2 37.719 75.611 45.777
781 1 16.024 55.375 38.172
782 1 16.686 56.868 38.167
783 2 15.828 56.356 38.172
784 1 66.356 9.018 10.133
785 1 67.940 9.180 10.498
786 2 67.165 8.549 10.491
787 1 74.581 25.932 43.256
788 1 75.705 26.528 44.280
789 2 75.124 26.737 43.494
790 1 42.618 40.025 9.449
791 1 43.337 40.965 10.573
792 2 43.458 40.179 9.969
793 1 58.016 47.242 12.842
794 1 57.871 48.863 12.705
795 2 58.435 48.122 13.069
796 1 69.295 3.987 65.935
797 1 69.901 4.076 67.449
798 2 69.803 3.494 66.642
799 1 30.718 54.570 8.737
800 1 30.646 55.956 9.597
801 2 30.383 54.992 9.579
802 1 65.135 0.662 30.572
803 1 66.744 0.885 30.406
804 2 65.854 1.340 30.417
805 1 25.589 17.385 3.757
806 1 24.023 17.825 3.899
807 2 24.642 17.094 3.615
808 1 4.690 34.694 36.884
809 1 5.319 35.453 38.186
810 2 5.459 35.237 37.221
811 1 43.813 17.521 59.385
812 1 45.254 18.289 59.390
813 2 44.806 17.396 59.391
814 1 71.065 8.321 25.807
815 1 71.560 9.357 24.645
816 2 71.197 9.285 25.574
817 1 46.813 76.476 58.591
818 1 45.715 75.268 58.596
819 2 46.690 75.484 58.559
820 1 25.577 2.967 41.478
821 1 26.076 4.005 40.321
822 2 25.364 3.817 40.996
823 1 8.739 5.632 70.882
824 1 9.420 4.161 70.686
825 2 9.579 5.147 70.637
826 1 4.613 70.291 17.981
827 1 5.378 68.900 17.599
828 2 5.493 69.816 17.982
829 1 22.639 4.267 16.881
830 1 22.631 3.748 15.332
831 2 22.060 3.962 16.124
832 1 34.514 14.066 66.945
833 1 35.878 13.172 67.033
834 2 34.880 13.136 66.997
835 1 15.480 31.778 1.647
836 1 15.857 33.357 1.469
837 2 15.155 32.663 1.314
838 1 5.285 20.135 56.445
839 1 6.542 19.717 57.399
840 2 5.548 19.803 57.351
841 1 19.155 29.419 46.680
842 1 18.498 30.799 47.254
843 2 19.354 30.318 47.069
844 1 43.600 71.041 62.167
845 1 42.899 69.961 61.162
846 2 42.996 70.246 62.115
847 1 42.018 71.015 25.682
848 1 41.427 72.454 25.186
849 2 42.250 71.964 25.471
850 1 31.234 40.549 73.008
851 1 31.608 42.099 73.363
852 2 31.981 41.207 73.108
853 1 55.036 61.431 69.902
854 1 55.641 59.918 69.802
855 2 55.829 60.885 69.632
856 1 39.728 36.185 18.072
857 1 39.372 34.601 18.248
858 2 39.828 35.386 18.665
859 1 2.738 14.841 66.510
860 1 1.351 14.679 65.664
861 2 2.203 15.195 65.742
862 1 72.126 78.473 71.019
863 1 71.225 77.421 71.885
864 2 71.253 78.338 71.488
865 1 54.538 15.642 35.707
866 1 55.617 14.417 35.732
867 2 55.505 15.404 35.623
868 1 31.987 7.969 14.483
869 1 30.884 7.649 15.643
870 2 31.042 8.116 14.774
871 1 26.552 41.340 56.073
872 1 24.970 41.621 56.369
873 2 25.878 42.036 56.325
874 1 30.481 77.294 51.715
875 1 30.810 75.713 51.957
876 2 31.210 76.612 51.785
877 1 6.454 53.671 4.375
878 1 5.309 54.830 4.483
879 2 6.201 54.530 4.819
880 1 28.577 30.294 11.999
881 1 29.807 29.347 12.508
882 2 28.838 29.562 12.629
883 1 68.901 76.677 46.223
884 1 69.251 77.513 44.865
885 2 69.436 77.432 45.844
886 1 73.200 29.328 34.204
887 1 72.800 30.771 34.856
888 2 72.665 29.782 34.916
889 1 34.444 64.622 71.926
890 1 35.466 65.704 71.253
891 2 35.341 64.743 71.499
892 1 4.906 2.755 80.000
893 1 6.271 3.596 79.690
894 2 5.873 2.682 79.754
895 1 55.610 12.069 12.610
896 1 54.522 13.282 12.507
897 2 55.438 12.983 12.243
898 1 3.199 15.226 13.128
899 1 3.506 16.712 13.732
900 2 3.855 15.780 13.640
901 1 63.063 33.132 67.250
902 1 61.537 32.589 67.044
903 2 62.102 33.401 67.188
904 1 19.680 35.568 39.332
905 1 20.416 35.657 40.787
906 2 19.979 35.044 40.130
907 1 49.170 57.555 74.847
908 1 48.411 58.887 75.410
909 2 49.083 58.547 74.753
910 1 67.162 51.509 60.228
911 1 66.082 52.732 60.289
912 2 66.991 52.461 59.973
913 1 1.791 62.844 1.129
914 1 0.296 62.199 1.262
915 2 1.249 62.009 1.027
916 1 43.502 62.006 17.163
917 1 42.926 60.648 16.462
918 2 43.238 61.054 17.320
919 1 14.551 2.407 41.049
920 1 13.479 1.689 42.050
921 2 13.666 2.505 41.504
922 1 25.667 40.843 18.686
923 1 25.633 41.973 19.864
924 2 25.211 41.672 19.010
925 1 31.302 31.310 21.785
926 1 29.949 30.397 21.738
927 2 30.394 31.174 22.181
928 1 9.542 49.572 71.113
929 1 9.807 50.926 71.988
930 2 10.236 50.121 71.580
931 1 71.480 24.582 75.940
932 1 71.000 23.051 76.247
933 2 71.761 23.696 76.312
934 1 61.335 16.635 59.467
935 1 60.228 15.642 58.791
936 2 61.172 15.968 58.740
937 1 57.549 10.978 30.743
938 1 55.930 10.771 30.813
939 2 56.786 10.399 30.456
940 1 13.421 15.887 21.940
941 1 14.211 14.580 22.519
942 2 13.325 14.930 22.216
943 1 65.676 22.110 38.824
944 1 64.227 22.665 38.315
945 2 65.073 22.215 38.032
946 1 41.548 58.972 39.951
947 1 39.925 58.807 40.034
948 2 40.793 58.316 39.972
949 1 18.008 19.948 17.542
950 1 19.092 18.768 17.226
951 2 18.134 18.962 17.434
952 1 2.083 45.982 26.443
953 1 0.451 45.996 26.411
954 2 1.271 46.566 26.410
955 1 15.615 12.999 2.505
956 1 14.635 12.668 1.242
957 2 14.734 13.204 2.079
958 1 18.741 39.314 72.060
959 1 18.486 39.071 70.466
960 2 18.068 39.039 71.373
961 1 28.189 1.440 65.924
962 1 28.111 1.207 64.310
963 2 28.141 1.895 65.035
964 1 36.732 30.264 30.364
965 1 36.196 28.795 30.835
966 2 36.953 29.290 30.410
967 1 2.639 33.235 79.373
968 1 2.966 31.666 79.687
969 2 2.793 32.334 78.965
970 1 13.796 74.160 76.412
971 1 15.254 74.895 76.398
972 2 14.780 74.022 76.293
973 1 50.526 61.610 18.797
974 1 51.980 61.966 18.144
975 2 51.265 62.283 18.766
976 1 22.569 65.063 68.705
977 1 24.149 65.476 68.705
978 2 23.506 64.711 68.705
979 1 40.986 42.774 72.537
980 1 40.120 44.158 72.561
981 2 40.267 43.296 72.077
982 1 5.521 20.077 42.148
983 1 7.139 20.022 42.357
984 2 6.361 20.619 42.167
985 1 0.395 29.903 60.733
986 1 0.025 28.825 61.902
987 2 0.314 28.931 60.952
988 1 51.334 42.082 8.702
989 1 51.182 42.028 10.327
990 2 51.211 41.480 9.492
991 1 2.627 75.567 43.576
992 1 3.727 74.665 42.774
993 2 3.452 75.596 43.011
994 1 68.927 74.330 0.803
995 1 68.682 75.731 0.001
996 2 68.293 75.090 0.661
997 1 75.554 52.041 38.960
998 1 75.370 53.634 39.266
999 2 74.987 52.847 38.785
1000 1 52.653 69.693 6.057
1001 1 51.049 69.704 6.364
1002 2 51.944 69.430 6.713
1003 1 54.282 64.285 15.092
1004 1 54.595 65.882 14.957
1005 2 55.005 64.975 15.052
1006 1 10.115 69.630 7.677
1007 1 11.340 68.555 7.577
1008 2 11.109 69.522 7.675
1009 1 40.544 31.313 67.132
1010 1 39.900 32.480 68.076
1011 2 40.682 32.231 67.507
1012 1 8.486 41.263 16.455
1013 1 7.649 42.566 16.973
1014 2 7.581 41.686 16.505
1015 1 70.222 48.467 70.705
1016 1 71.826 48.763 70.782
1017 2 70.923 49.180 70.686
1018 1 35.321 33.062 37.139
1019 1 34.071 32.108 36.698
1020 2 35.056 32.253 36.614
1021 1 8.562 31.553 27.730
1022 1 9.914 31.056 28.498
1023 2 9.500 31.231 27.606
1024 1 63.703 68.702 74.989
1025 1 65.246 69.235 75.042
1026 2 64.413 69.200 74.490
1027 1 28.073 21.393 32.709
1028 1 28.752 20.594 31.457
1029 2 28.054 20.550 32.172
1030 1 33.459 73.526 59.205
1031 1 32.054 74.221 59.663
1032 2 32.752 73.550 59.912
1033 1 67.096 55.757 2.886
1034 1 65.737 55.204 2.169
1035 2 66.736 55.185 2.149
1036 1 62.455 11.518 22.708
1037 1 61.789 12.957 22.314
1038 2 62.647 12.474 22.485
1039 1 20.770 30.222 45.332
1040 1 22.375 30.271 45.629
1041 2 21.486 30.650 45.884
1042 1 64.070 70.108 63.497
1043 1 62.821 69.641 64.439
1044 2 63.672 69.345 64.007
1045 1 62.868 16.109 61.752
1046 1 62.094 14.673 61.682
1047 2 62.057 15.603 62.047
1048 1 22.901 20.477 59.277
1049 1 22.281 18.966 59.233
1050 2 22.058 19.939 59.288
1051 1 60.617 70.448 16.594
1052 1 61.234 69.000 17.028
1053 2 60.402 69.485 16.763
1054 1 30.325 27.955 66.903
1055 1 28.933 27.164 66.585
1056 2 29.328 28.027 66.897
1057 1 55.894 62.712 9.859
1058 1 54.947 62.978 8.555
1059 2 55.789 62.547 8.878
1060 1 70.439 50.938 37.130
1061 1 69.762 49.828 38.117
1062 2 70.030 50.027 37.175
1063 1 65.697 78.904 57.780
1064 1 66.254 78.553 59.275
1065 2 65.509 78.976 58.760
1066 1 18.656 19.426 75.233
1067 1 18.124 20.891 74.745
1068 2 18.269 19.942 74.468
1069 1 39.874 18.175 6.252
1070 1 39.922 18.660 7.811
1071 2 39.763 17.883 7.203
1072 1 11.401 70.860 58.116
1073 1 12.003 69.393 57.723
1074 2 11.453 69.898 58.388
1075 1 72.189 54.569 38.751
1076 1 71.064 55.366 37.875
1077 2 71.821 54.715 37.832
1078 1 1.132 47.083 63.519
1079 1 0.351 47.908 64.692
1080 2 0.495 47.831 63.706
1081 1 1.441 42.056 13.560
1082 1 0.000 41.952 12.798
1083 2 0.792 41.435 13.120
1084 1 69.532 21.193 43.957
1085 1 70.963 20.434 43.749
1086 2 70.078 20.395 44.213
1087 1 43.643 75.777 51.806
1088 1 44.838 76.645 51.109
1089 2 44.140 76.645 51.825
1090 1 13.828 77.491 43.333
1091 1 13.306 79.037 43.417
1092 2 14.113 78.449 43.365
1093 1 74.476 55.493 49.814
1094 1 74.932 57.061 49.787
1095 2 75.258 56.116 49.798
1096 1 53.443 20.641 55.412
1097 1 54.050 21.115 53.971
1098 2 53.509 20.417 54.439
1099 1 18.791 7.898 47.121
1100 1 19.835 9.145 47.260
1101 2 19.502 8.424 46.654
1102 1 1.512 41.276 17.628
1103 1 2.898 40.418 17.727
1104 2 2.344 41.009 17.141
1105 1 54.644 4.617 42.981
1106 1 54.521 3.210 42.161
1107 2 54.671 4.195 42.075
1108 1 76.639 53.079 22.073
1109 1 76.317 53.863 23.469
1110 2 77.035 53.614 22.820
1111 1 27.025 47.798 45.116
1112 1 27.243 46.438 45.994
1113 2 26.720 46.855 45.251
1114 1 79.018 10.426 33.302
1115 1 79.748 11.755 33.910
1116 2 79.048 11.061 34.075
1117 1 36.707 45.125 25.498
1118 1 35.742 45.881 24.419