LAMMPS Description

26040  atoms
0  bonds
0  angles
0  dihedrals
0  impropers

2  atom types
0  bond types
0  angle types
0  dihedral types
0  improper types

0.0 100.0 xlo xhi
0.0 100.0 ylo yhi
0.0 100.0 zlo zhi

Masses

1 1.00794  # H
2 15.9994  # O

Atoms

1 1 90.021 93.907 81.572
2 1 91.643 94.001 81.739
3 2 90.797 94.529 81.676
4 1 44.569 57.362 80.611
5 1 43.132 56.976 81.284
6 2 43.601 57.189 80.428
7 1 23.549 74.735 1.543
8 1 22.428 75.922 1.578
9 2 22.589 74.947 1.726
10 1 8.308 54.023 56.453
11 1 7.677 54.819 55.174
12 2 8.351 54.139 55.460
13 1 0.202 15.150 4.252
14 1 0.689 13.894 5.175
15 2 0.936 14.490 4.412
16 1 61.898 8.908 79.885
17 1 60.573 7.983 79.649
18 2 61.061 8.802 79.348
19 1 39.632 33.117 43.136
20 1 39.414 32.240 41.775
21 2 39.484 33.165 42.148
22 1 66.890 5.185 38.382
23 1 66.286 5.190 36.865
24 2 66.063 5.069 37.832
25 1 27.830 39.137 27.996
26 1 26.271 39.596 28.163
27 2 26.878 38.854 27.878
28 1 39.070 11.615 9.620
29 1 40.658 11.741 9.980
30 2 40.000 11.488 9.272
31 1 12.550 48.322 48.705
32 1 13.478 49.001 47.546
33 2 13.456 48.691 48.496
34 1 31.974 98.784 64.852
35 1 31.424 98.709 63.316
36 2 31.211 99.010 64.246
37 1 54.208 22.299 33.768
38 1 55.182 22.634 32.501
39 2 55.155 22.316 33.448
40 1 44.116 33.253 81.158
41 1 43.664 32.257 82.370
42 2 43.562 33.174 81.986
43 1 4.976 39.243 18.868
44 1 3.493 39.926 18.880
45 2 4.475 40.108 18.905
46 1 39.436 3.962 97.372
47 1 40.156 2.514 97.602
48 2 39.632 3.243 98.040
49 1 34.869 99.182 97.564
50 1 34.516 98.327 96.218
51 2 34.143 98.711 97.062
52 1 69.962 48.018 81.562
53 1 69.255 46.591 81.205
54 2 69.550 47.192 81.947
55 1 97.252 84.673 24.985
56 1 97.541 83.644 26.220
57 2 97.579 84.599 25.927
58 1 30.855 66.959 39.205
59 1 31.540 66.528 40.624
60 2 31.086 67.268 40.128
61 1 9.824 7.699 56.599
62 1 11.089 8.616 57.071
63 2 10.115 8.623 56.848
64 1 20.854 27.194 22.211
65 1 21.792 27.479 20.905
66 2 21.788 27.371 21.898
67 1 69.167 9.818 88.657
68 1 68.225 11.103 88.298
69 2 68.227 10.127 88.509
70 1 48.865 43.625 14.178
71 1 49.852 44.905 13.948
72 2 49.767 43.913 13.857
73 1 96.529 98.976 78.833
74 1 96.881 98.330 80.291
75 2 97.249 98.565 79.392
76 1 19.347 60.619 99.319
77 1 19.088 59.065 98.890
78 2 18.692 59.863 99.343
79 1 73.192 16.424 32.319
80 1 71.782 17.190 32.624
81 2 72.761 17.315 32.468
82 1 92.307 60.793 71.169
83 1 91.613 61.813 72.239
84 2 92.446 61.309 72.014
85 1 52.230 55.283 95.963
86 1 52.733 56.728 96.532
87 2 53.029 55.856 96.145
88 1 3.103 90.710 12.721
89 1 4.154 90.110 11.625
90 2 3.472 90.820 11.798
91 1 73.338 24.839 56.815
92 1 74.108 23.543 56.187
93 2 74.217 24.489 56.491
94 1 77.626 6.423 94.277
95 1 76.775 5.787 93.037
96 2 77.404 5.581 93.785
97 1 26.883 89.071 90.898
98 1 26.108 89.964 89.771
99 2 27.002 89.718 90.144
100 1 43.556 17.484 72.898
101 1 43.724 18.337 71.515
102 2 43.111 17.749 72.042
103 1 50.161 74.497 98.091
104 1 50.066 75.717 97.009
105 2 49.564 75.199 97.701
106 1 66.584 68.582 42.807
107 1 67.786 69.221 41.905
108 2 67.552 68.508 42.565
109 1 16.536 95.916 36.931
110 1 15.136 95.288 37.490
111 2 16.005 95.706 37.753
112 1 52.660 36.825 28.061
113 1 51.556 37.185 29.209
114 2 52.504 36.915 29.045
115 1 17.794 85.304 81.131
116 1 17.956 84.421 79.767
117 2 18.093 84.426 80.756
118 1 82.390 46.398 83.413
119 1 83.544 47.129 82.518
120 2 83.070 47.131 83.398
121 1 30.594 46.612 6.135
122 1 31.904 46.308 5.208
123 2 31.546 46.862 5.959
124 1 66.025 33.756 25.296
125 1 65.300 34.463 26.578
126 2 65.310 33.656 25.989
127 1 65.285 16.292 78.561
128 1 64.456 15.058 79.236
129 2 64.375 15.957 78.806
130 1 79.513 71.151 66.919
131 1 79.403 71.014 68.543
132 2 79.358 70.517 67.677
133 1 4.157 71.083 34.161
134 1 5.731 71.479 34.335
135 2 4.793 71.816 34.401
136 1 97.229 78.828 95.460
137 1 96.594 77.335 95.279
138 2 96.445 78.310 95.119
139 1 57.346 94.465 42.986
140 1 57.605 96.075 43.068
141 2 56.965 95.366 42.775
142 1 84.669 60.354 19.149
143 1 83.180 60.751 18.608
144 2 83.740 60.018 18.992
145 1 25.463 15.994 5.895
146 1 25.773 17.039 7.110
147 2 25.059 16.515 6.646
148 1 40.895 75.754 24.483
149 1 41.828 76.995 23.977
150 2 40.919 76.583 23.924
151 1 24.431 88.502 82.170
152 1 23.205 89.133 83.045
153 2 23.488 88.363 82.474
154 1 75.807 14.830 72.095
155 1 76.502 16.262 71.729
156 2 76.456 15.293 71.490
157 1 62.530 46.336 77.488
158 1 62.303 44.803 76.975
159 2 62.357 45.395 77.778
160 1 72.520 75.267 36.563
161 1 73.146 74.022 37.413
162 2 72.931 74.998 37.434
163 1 63.979 70.705 64.882
164 1 64.261 71.630 66.198
165 2 64.609 70.878 65.639
166 1 93.389 77.813 45.983
167 1 92.595 79.213 46.256
168 2 92.502 78.220 46.199
169 1 43.189 40.650 9.359
170 1 42.997 42.270 9.297
171 2 43.661 41.525 9.254
172 1 51.632 16.935 24.970
173 1 52.721 15.893 25.600
174 2 51.749 16.117 25.534
175 1 90.051 65.556 87.694
176 1 91.573 66.125 87.530
177 2 91.008 65.417 87.952
178 1 72.333 66.135 20.248
179 1 71.845 67.566 19.631
180 2 71.695 66.897 20.358
181 1 41.455 15.131 76.644
182 1 41.379 16.628 77.292
183 2 41.988 15.872 77.053
184 1 36.287 40.919 57.255
185 1 35.326 40.935 58.575
186 2 36.236 40.706 58.231
187 1 20.718 47.853 57.326
188 1 20.868 47.685 55.708
189 2 20.506 48.264 56.439
190 1 73.857 31.630 7.503
191 1 74.501 32.945 8.227
192 2 73.679 32.568 7.801
193 1 84.928 78.847 76.789
194 1 86.001 77.622 76.915
195 2 85.588 78.284 76.291
196 1 95.038 18.132 26.996
197 1 93.627 17.862 26.221
198 2 94.404 18.484 26.308
199 1 65.834 96.763 66.488
200 1 67.079 96.885 65.438
201 2 66.146 96.549 65.562
202 1 22.182 91.031 43.486
203 1 22.685 92.420 44.183
204 2 22.911 91.460 44.021
205 1 75.811 46.620 16.243
206 1 74.569 47.156 15.329
207 2 75.385 47.428 15.837
208 1 11.165 10.776 55.281
209 1 9.869 10.072 54.581
210 2 10.836 10.297 54.467
211 1 80.704 40.577 31.539
212 1 81.374 39.563 30.449
213 2 81.500 40.415 30.956
214 1 29.157 15.925 75.683
215 1 29.233 14.906 76.957
216 2 29.457 15.824 76.632
217 1 85.741 85.061 41.885
218 1 85.338 83.507 41.589
219 2 86.022 84.108 42.000
220 1 97.716 46.992 3.128
221 1 98.333 47.644 1.764
222 2 98.181 47.789 2.741
223 1 2.910 89.358 47.177
224 1 2.045 88.911 45.865
225 2 1.995 89.324 46.774
226 1 92.306 13.210 58.519
227 1 93.338 13.251 59.784
228 2 92.378 13.181 59.516
229 1 15.468 88.948 93.473
230 1 15.647 87.355 93.782
231 2 14.989 88.074 93.562
232 1 20.675 67.513 92.307
233 1 19.876 66.124 92.617
234 2 20.731 66.515 92.279
235 1 63.454 43.326 62.733
236 1 64.974 43.886 62.527
237 2 64.413 43.064 62.620
238 1 13.594 24.789 28.625
239 1 12.977 24.155 27.252
240 2 13.346 23.941 28.156
241 1 98.525 72.906 36.179
242 1 96.965 73.276 36.492
243 2 97.632 72.534 36.435
244 1 85.573 11.358 36.530
245 1 84.506 11.572 37.748
246 2 84.676 11.095 36.886
247 1 38.361 69.866 36.583
248 1 37.061 69.243 37.349
249 2 37.994 69.058 37.044
250 1 39.350 31.043 13.671
251 1 40.580 32.091 13.905
252 2 39.586 31.989 13.895
253 1 89.970 81.578 51.506
254 1 91.551 81.766 51.868
255 2 90.789 82.124 51.330
256 1 41.704 61.980 76.850
257 1 43.284 61.695 77.149
258 2 42.511 62.294 77.352
259 1 13.764 21.758 44.089
260 1 13.280 20.230 43.777
261 2 12.999 21.116 44.144
262 1 59.789 34.519 99.994
263 1 60.921 35.657 99.695
264 2 60.771 34.695 99.920
265 1 29.906 96.238 82.001
266 1 31.169 97.229 81.707
267 2 30.651 96.758 82.419
268 1 53.506 6.686 59.609
269 1 54.555 6.854 58.369
270 2 54.066 7.336 59.096
271 1 74.148 44.466 70.240
272 1 73.546 45.244 71.543
273 2 74.292 45.221 70.879
274 1 73.667 93.428 10.618
275 1 73.075 93.907 9.173
276 2 73.805 93.398 9.628
277 1 11.645 10.346 77.233
278 1 11.823 9.290 78.466
279 2 12.164 9.559 77.566
280 1 24.309 58.303 72.877
281 1 25.250 59.637 72.936
282 2 25.240 58.652 72.765
283 1 27.078 13.613 56.688
284 1 27.862 15.044 56.757
285 2 27.949 14.077 56.521
286 1 78.716 88.375 53.950
287 1 80.159 87.614 53.855
288 2 79.509 88.059 54.471
289 1 9.160 19.603 49.087
290 1 8.164 20.855 48.761
291 2 9.087 20.599 49.045
292 1 43.379 23.543 87.510
293 1 44.460 24.766 87.462
294 2 44.351 23.776 87.546
295 1 74.320 13.570 21.198
296 1 72.914 14.401 21.188
297 2 73.646 14.042 21.767
298 1 18.430 92.679 1.341
299 1 17.235 91.984 2.211
300 2 18.051 91.810 1.660
301 1 61.186 16.915 57.327
302 1 62.076 15.776 56.567
303 2 61.712 16.704 56.502
304 1 23.059 46.331 33.328
305 1 22.106 45.206 34.032
306 2 22.264 46.186 33.918
307 1 52.242 34.135 13.833
308 1 53.802 33.655 13.791
309 2 52.940 33.586 14.293
310 1 89.029 19.130 79.827
311 1 88.242 18.502 81.113
312 2 88.471 19.346 80.628
313 1 62.276 10.366 37.874
314 1 63.907 10.377 37.792
315 2 63.088 10.948 37.818
316 1 55.675 93.792 5.004
317 1 54.102 93.692 4.574
318 2 55.044 93.631 4.244
319 1 50.231 72.602 46.903
320 1 48.938 73.011 47.813
321 2 49.821 72.544 47.814
322 1 73.505 93.172 73.361
323 1 72.994 93.215 71.811
324 2 72.788 92.879 72.729
325 1 26.520 30.155 56.961
326 1 25.751 31.444 57.604
327 2 25.907 30.922 56.767
328 1 74.916 49.547 92.650
329 1 74.926 47.935 92.909
330 2 74.470 48.795 93.135
331 1 64.979 90.026 37.488
332 1 66.263 89.049 37.235
333 2 65.569 89.616 36.792
334 1 46.060 24.857 52.635
335 1 45.856 25.492 51.144
336 2 46.508 25.348 51.887
337 1 37.601 13.041 23.383
338 1 36.045 12.546 23.353
339 2 36.649 13.342 23.323
340 1 36.328 53.819 45.149
341 1 35.345 52.710 45.835
342 2 36.292 53.013 45.741
343 1 31.104 41.264 67.763
344 1 31.440 39.734 67.304
345 2 31.836 40.621 67.537
346 1 84.754 90.882 11.375
347 1 85.566 90.086 12.547
348 2 84.667 90.405 12.250
349 1 80.223 28.083 45.308
350 1 79.873 27.292 43.924
351 2 80.054 27.186 44.901
352 1 81.997 7.244 90.806
353 1 81.308 5.769 90.682
354 2 82.175 6.262 90.739
355 1 35.942 91.636 52.294
356 1 37.290 91.248 51.459
357 2 36.927 91.792 52.214
358 1 18.194 95.498 65.863
359 1 16.587 95.663 66.100
360 2 17.447 96.154 65.971
361 1 94.302 13.776 73.917
362 1 93.905 12.539 72.928
363 2 94.638 13.159 73.205
364 1 49.718 60.419 7.556
365 1 49.725 59.754 6.065
366 2 49.316 59.710 6.976
367 1 12.077 92.883 77.404
368 1 13.224 93.803 78.114
369 2 12.243 93.620 78.058
370 1 24.112 26.265 56.439
371 1 22.667 25.520 56.289
372 2 23.657 25.396 56.244
373 1 64.862 10.462 70.309
374 1 66.390 10.143 69.828
375 2 65.830 10.613 70.510
376 1 30.022 12.445 37.226
377 1 30.318 12.835 38.784
378 2 30.448 13.116 37.834
379 1 88.795 3.752 48.678
380 1 87.278 3.150 48.708
381 2 88.005 3.557 49.259
382 1 95.842 16.649 23.797
383 1 94.400 16.072 24.301
384 2 94.959 16.894 24.197
385 1 2.579 72.925 46.226
386 1 4.182 73.171 46.036
387 2 3.286 73.614 46.066
388 1 66.212 82.126 78.999
389 1 65.432 82.928 80.188
390 2 66.056 82.174 79.985
391 1 35.500 40.326 66.036
392 1 34.655 38.936 65.896
393 2 34.870 39.703 66.500
394 1 31.240 87.092 98.259
395 1 32.136 87.507 96.959
396 2 31.271 87.658 97.435
397 1 74.840 20.137 14.245
398 1 75.058 18.566 14.637
399 2 75.442 19.486 14.709
400 1 73.449 97.790 52.605
401 1 72.572 96.455 52.946
402 2 73.129 96.910 52.252
403 1 98.776 22.479 16.076
404 1 97.154 22.366 15.928
405 2 97.906 22.939 16.251
406 1 38.245 66.298 25.993
407 1 38.155 67.174 27.368
408 2 38.706 66.519 26.852
409 1 84.395 5.803 29.723
410 1 85.975 6.086 30.023
411 2 85.270 5.380 29.955
412 1 56.641 16.016 67.259
413 1 56.380 14.864 66.131
414 2 56.034 15.716 66.522
415 1 45.042 79.677 80.377
416 1 45.200 78.598 81.592
417 2 45.548 78.876 80.698
418 1 95.477 27.289 32.136
419 1 96.329 28.681 32.170
420 2 95.964 27.934 32.725
421 1 73.882 71.842 46.468
422 1 74.408 73.060 45.516
423 2 74.673 72.402 46.219
424 1 22.573 24.824 44.223
425 1 21.053 24.584 43.677
426 2 21.965 24.914 43.434
427 1 76.560 38.600 88.555
428 1 77.235 39.949 87.931
429 2 77.023 39.459 88.775
430 1 90.467 20.197 60.408
431 1 91.526 20.827 59.337
432 2 90.572 20.822 59.635
433 1 22.478 68.390 16.117
434 1 21.684 68.432 14.690
435 2 22.415 68.848 15.230
436 1 9.247 56.465 79.376
437 1 9.177 57.671 80.474
438 2 8.980 56.705 80.309
439 1 89.297 66.337 74.248
440 1 90.495 66.321 73.138
441 2 90.122 65.860 73.942
442 1 85.007 82.098 46.814
443 1 84.090 80.751 46.927
444 2 84.086 81.748 46.987
445 1 46.415 7.632 0.568
446 1 47.781 7.695 1.461
447 2 47.045 7.102 1.136
448 1 77.473 49.378 69.145
449 1 77.510 47.796 68.741
450 2 78.068 48.603 68.930
451 1 28.092 66.457 73.247
452 1 28.894 67.825 73.640
453 2 28.914 67.001 73.075
454 1 96.416 67.485 67.967
455 1 96.806 69.036 67.636
456 2 96.993 68.082 67.409
457 1 31.426 82.812 83.537
458 1 29.887 82.274 83.635
459 2 30.532 82.965 83.959
460 1 67.422 62.439 16.526
461 1 67.088 60.843 16.607
462 2 67.607 61.590 17.021
463 1 8.435 73.088 99.256
464 1 7.561 72.099 98.295
465 2 8.458 72.252 98.708
466 1 99.556 52.134 50.378
467 1 98.922 50.634 50.262
468 2 98.741 51.577 50.539
469 1 22.913 73.549 79.625
470 1 24.490 73.846 79.928
471 2 23.836 73.165 79.601
472 1 72.470 33.013 39.990
473 1 74.079 32.734 39.959
474 2 73.177 32.305 39.974
475 1 14.512 90.490 35.140
476 1 14.360 92.086 35.452
477 2 14.114 91.350 34.821
478 1 89.421 33.491 41.279
479 1 87.936 33.312 40.624
480 2 88.918 33.241 40.452
481 1 47.725 49.608 82.094
482 1 48.629 49.422 80.747
483 2 47.911 49.015 81.310
484 1 48.856 38.677 48.286
485 1 49.379 39.925 47.372
486 2 48.711 39.185 47.437
487 1 40.856 43.286 99.642
488 1 40.997 44.895 99.399
489 2 40.636 44.042 99.024
490 1 48.572 76.699 76.688
491 1 47.257 77.622 76.981
492 2 47.583 76.688 76.838
493 1 99.893 39.342 71.241
494 1 98.799 40.093 72.193
495 2 99.366 40.182 71.375
496 1 28.527 29.596 6.300
497 1 27.002 29.774 5.743
498 2 27.829 29.216 5.692
499 1 73.181 95.009 78.186
500 1 72.630 96.489 78.602
501 2 72.428 95.510 78.613
502 1 57.417 28.463 69.795
503 1 57.267 27.444 71.062
504 2 56.771 28.034 70.427
505 1 12.720 69.248 20.070
506 1 13.479 67.983 20.771
507 2 12.934 68.275 19.985
508 1 67.839 8.129 41.353
509 1 69.378 8.639 41.547
510 2 68.498 8.844 41.119
511 1 81.710 39.968 24.064
512 1 80.623 39.154 24.970
513 2 81.566 39.481 24.925
514 1 88.209 82.967 33.117
515 1 87.196 82.080 32.194
516 2 87.370 82.988 32.573
517 1 45.094 42.216 83.342
518 1 45.577 42.379 81.791
519 2 45.654 42.756 82.714
520 1 84.985 93.827 46.534
521 1 84.921 92.203 46.687
522 2 84.461 93.006 46.309
523 1 42.066 5.455 15.665
524 1 41.340 4.289 14.782
525 2 41.498 5.272 14.862
526 1 32.056 37.368 41.521
527 1 30.968 36.149 41.512
528 2 31.942 36.374 41.516
529 1 97.490 91.347 32.899
530 1 97.739 92.712 33.761
531 2 98.184 91.974 33.254
532 1 38.627 70.569 61.879
533 1 37.091 70.064 62.107
534 2 38.041 69.770 62.016
535 1 40.213 21.545 48.044
536 1 38.928 22.553 48.066
537 2 39.215 21.596 48.095
538 1 65.589 69.313 55.730
539 1 65.788 70.933 55.667
540 2 65.665 70.149 56.274
541 1 76.484 51.544 76.315
542 1 75.045 51.830 75.597
543 2 75.642 52.083 76.357
544 1 98.641 13.176 33.669
545 1 97.511 14.272 34.104
546 2 97.804 13.322 34.198
547 1 0.333 81.494 84.664
548 1 0.511 82.844 83.762
549 2 0.533 81.845 83.749
550 1 10.267 66.060 49.313
551 1 11.768 65.435 49.164
552 2 11.242 66.231 49.459
553 1 54.511 38.885 70.483
554 1 56.124 39.133 70.518
555 2 55.231 39.579 70.475
556 1 41.380 71.413 52.341
557 1 41.587 72.943 52.874
558 2 40.917 72.274 52.552
559 1 5.448 34.593 87.591
560 1 4.057 35.402 87.868
561 2 4.708 35.116 87.166
562 1 42.124 21.321 84.774
563 1 41.010 21.237 85.964
564 2 41.834 21.706 85.650
565 1 76.405 68.591 78.670
566 1 77.848 69.130 79.214
567 2 77.261 68.327 79.116
568 1 70.155 40.712 88.869
569 1 70.684 41.956 87.953
570 2 69.874 41.484 88.299
571 1 59.907 44.707 51.890
572 1 58.490 44.537 52.684
573 2 59.428 44.877 52.752
574 1 94.365 36.609 85.215
575 1 95.969 36.309 85.175
576 2 95.255 36.961 84.924
577 1 54.586 36.987 73.384
578 1 54.026 35.461 73.541
579 2 54.625 36.155 73.938
580 1 98.314 97.874 23.812
581 1 99.947 97.912 23.835
582 2 99.145 97.316 23.805
583 1 95.112 91.459 23.927
584 1 96.324 91.064 22.907
585 2 95.883 90.840 23.775
586 1 4.387 10.750 99.101
587 1 5.843 10.281 99.671
588 2 5.376 10.845 98.991
589 1 15.859 18.170 8.362
590 1 14.737 18.927 7.448
591 2 15.714 18.856 7.649
592 1 66.688 35.464 97.134
593 1 68.299 35.689 97.283
594 2 67.420 36.145 97.146
595 1 40.647 65.300 2.315
596 1 41.593 63.995 2.579
597 2 41.520 64.986 2.690
598 1 2.576 23.569 1.602
599 1 1.127 24.245 1.932
600 2 1.635 23.386 1.889
601 1 72.863 22.488 70.732
602 1 73.642 21.629 71.881
603 2 73.177 21.577 70.998
604 1 92.336 0.621 72.085
605 1 93.154 1.086 73.420
606 2 92.390 1.305 72.813
607 1 86.105 16.870 48.771
608 1 84.991 16.671 49.948
609 2 85.393 16.265 49.128
610 1 17.143 51.374 6.057
611 1 15.602 50.835 6.054
612 2 16.562 50.561 6.019
613 1 5.960 49.496 84.093
614 1 6.472 48.766 82.725
615 2 6.754 49.312 83.514
616 1 16.176 79.362 98.831
617 1 16.407 80.925 98.418
618 2 16.854 80.041 98.550
619 1 60.819 93.904 17.407
620 1 60.428 92.553 18.238
621 2 61.113 92.978 17.647
622 1 2.109 32.972 77.971
623 1 1.394 31.513 78.136
624 2 2.253 31.983 77.935
625 1 55.456 70.037 77.756
626 1 56.199 71.427 77.330
627 2 56.326 70.449 77.485
628 1 87.007 57.059 42.759
629 1 85.968 58.053 43.533
630 2 86.879 57.979 43.131
631 1 10.340 91.690 89.448
632 1 8.775 91.982 89.083
633 2 9.481 91.277 89.145
634 1 48.470 50.726 32.798
635 1 47.067 50.786 31.963
636 2 48.007 50.445 31.957
637 1 91.205 96.548 76.629
638 1 91.971 97.887 76.094
639 2 92.094 96.943 76.398
640 1 69.528 75.606 60.958
641 1 71.100 75.165 60.942
642 2 70.158 74.834 60.885
643 1 47.614 42.580 67.608
644 1 48.474 43.968 67.608
645 2 47.556 43.577 67.554
646 1 25.565 83.682 74.542
647 1 25.574 85.302 74.752
648 2 25.004 84.511 74.532
649 1 99.435 63.903 60.418
650 1 99.378 65.148 61.472
651 2 99.027 64.235 61.269
652 1 1.704 29.449 25.818
653 1 2.770 30.533 25.220
654 2 2.360 29.632 25.084
655 1 18.288 68.690 89.624
656 1 18.441 68.676 87.999
657 2 18.831 68.347 88.858
658 1 45.005 54.068 16.237
659 1 43.814 54.055 15.119
660 2 44.188 53.586 15.919
661 1 29.821 97.631 78.297
662 1 29.547 96.039 78.539
663 2 29.138 96.951 78.565
664 1 46.477 62.458 37.136
665 1 45.825 60.961 37.171
666 2 45.750 61.875 36.773
667 1 63.981 79.363 66.331
668 1 63.373 77.981 65.708
669 2 63.189 78.948 65.882
670 1 6.433 42.523 56.049
671 1 5.087 42.961 55.233
672 2 5.828 42.292 55.286
673 1 4.641 71.589 23.727
674 1 4.749 73.078 24.389
675 2 4.736 72.097 24.583
676 1 72.629 39.474 35.214
677 1 72.131 41.012 34.986
678 2 71.893 40.129 35.388
679 1 81.153 30.812 22.793
680 1 81.030 32.351 22.261
681 2 80.695 31.690 22.933
682 1 85.894 94.726 50.595
683 1 86.109 93.807 51.927
684 2 86.372 93.933 50.972
685 1 29.624 58.933 27.475
686 1 30.375 57.659 28.168
687 2 29.923 57.988 27.340
688 1 88.442 45.613 39.626
689 1 89.398 45.204 40.886
690 2 89.338 45.747 40.048
691 1 29.440 47.198 66.200
692 1 29.976 45.718 65.763
693 2 30.062 46.452 66.436
694 1 53.082 5.441 72.466
695 1 52.634 5.435 70.896
696 2 52.428 5.074 71.805
697 1 2.607 77.098 48.531
698 1 4.165 76.643 48.355
699 2 3.271 76.680 47.911
700 1 11.162 44.060 28.778
701 1 11.056 42.445 28.995
702 2 10.854 43.199 28.372
703 1 73.731 30.705 32.002
704 1 72.221 31.306 32.167
705 2 73.050 31.325 31.609
706 1 95.492 12.966 37.058
707 1 95.222 11.443 36.534
708 2 94.852 12.197 37.075
709 1 9.283 87.558 32.783
710 1 10.655 87.074 33.523
711 2 9.930 86.803 32.892
712 1 34.664 4.623 53.665
713 1 35.572 5.243 54.873
714 2 34.906 5.458 54.159
715 1 42.764 23.428 50.973
716 1 41.604 24.577 50.922
717 2 42.529 24.337 50.628
718 1 86.807 4.310 23.181
719 1 86.316 2.753 23.168
720 2 87.112 3.357 23.155
721 1 90.430 52.314 8.235
722 1 90.310 50.691 8.373
723 2 90.875 51.488 8.582
724 1 18.582 43.714 69.809
725 1 19.344 44.252 71.150
726 2 19.149 43.448 70.590
727 1 97.538 77.413 26.923
728 1 97.714 77.853 28.486
729 2 97.344 77.157 27.871
730 1 15.986 4.020 72.742
731 1 17.553 3.790 72.345
732 2 16.745 4.355 72.183
733 1 71.735 87.539 1.679
734 1 71.557 87.972 3.243
735 2 71.500 88.289 2.297
736 1 87.580 12.446 13.501
737 1 88.960 11.581 13.624
738 2 88.578 12.500 13.529
739 1 11.839 51.782 48.249
740 1 10.274 52.246 48.267
741 2 11.200 52.510 48.001
742 1 11.351 69.922 24.943
743 1 12.948 70.254 25.025
744 2 12.257 69.539 25.124
745 1 93.599 84.792 46.830
746 1 92.040 85.235 47.031
747 2 92.653 84.470 46.835
748 1 41.714 15.880 61.161
749 1 41.975 17.438 61.574
750 2 41.460 16.611 61.795
751 1 80.684 63.446 19.158
752 1 81.058 62.121 18.280
753 2 80.675 63.043 18.242
754 1 53.952 10.270 12.769
755 1 52.348 10.518 12.587
756 2 53.237 10.965 12.677
757 1 89.962 27.888 65.177
758 1 88.697 27.535 64.207
759 2 89.672 27.384 64.364
760 1 86.604 86.802 49.247
761 1 87.813 85.704 49.253
762 2 87.543 86.622 49.542
763 1 56.261 22.693 51.461
764 1 56.336 21.105 51.833
765 2 56.851 21.961 51.803
766 1 23.719 4.180 66.213
767 1 22.598 4.659 65.126
768 2 23.489 4.220 65.241
769 1 87.485 51.166 23.876
770 1 89.090 51.242 24.169
771 2 88.336 50.641 23.903
772 1 14.052 90.990 67.076
773 1 15.292 91.499 68.008
774 2 14.727 91.716 67.213
775 1 13.596 62.491 20.011
776 1 14.525 61.303 19.384
777 2 14.121 61.667 20.223
778 1 75.454 21.625 98.893
779 1 76.829 22.042 99.671
780 2 76.200 21.291 99.471
781 1 34.241 67.497 93.033
782 1 33.490 66.115 92.594
783 2 33.357 67.078 92.827
784 1 96.269 40.675 69.373
785 1 95.286 41.925 69.745
786 2 95.320 40.950 69.526
787 1 17.504 28.932 83.908
788 1 16.651 29.643 85.105
789 2 17.008 28.775 84.762
790 1 58.416 22.879 41.585
791 1 59.032 24.176 40.806
792 2 58.449 23.370 40.714
793 1 84.948 69.806 62.672
794 1 86.417 69.734 61.963
795 2 85.815 69.310 62.639
796 1 39.293 27.525 83.075
797 1 37.985 28.502 83.127
798 2 38.293 27.552 83.077
799 1 7.014 52.263 42.177
800 1 7.481 50.747 41.788
801 2 6.821 51.290 42.307
802 1 40.591 67.654 81.944
803 1 39.084 67.499 82.553
804 2 39.996 67.091 82.518
805 1 58.869 21.254 56.256
806 1 57.651 20.695 55.323
807 2 58.632 20.881 55.359
808 1 28.306 99.652 18.601
809 1 26.931 98.855 18.225
810 2 27.743 98.851 18.807
811 1 90.906 46.246 78.117
812 1 89.689 45.466 77.357
813 2 90.436 45.369 78.014
814 1 65.828 83.561 56.793
815 1 66.509 85.010 56.471
816 2 65.723 84.552 56.884
817 1 52.924 37.444 42.539
818 1 52.110 36.807 41.275
819 2 52.057 37.446 42.041
820 1 5.686 42.077 15.547
821 1 6.377 43.189 16.523
822 2 6.462 42.697 15.657
823 1 2.519 43.914 87.807
824 1 1.013 43.485 87.344
825 2 1.891 43.146 87.679
826 1 40.576 55.682 61.519
827 1 40.071 55.230 60.033
828 2 40.366 56.002 60.595
829 1 46.180 13.622 90.011
830 1 46.307 12.374 88.966
831 2 46.818 13.050 89.496
832 1 88.686 51.927 1.109
833 1 89.378 51.491 2.523
834 2 88.832 52.191 2.063
835 1 49.806 56.262 92.399
836 1 50.003 56.689 93.963
837 2 50.345 56.106 93.227
838 1 48.680 24.304 61.690
839 1 47.092 24.209 61.322
840 2 48.020 24.112 60.964
841 1 66.303 83.812 33.978
842 1 66.536 85.402 33.686
843 2 66.990 84.530 33.868
844 1 29.938 76.988 91.715
845 1 28.604 77.912 91.535
846 2 29.166 77.200 91.115
847 1 43.589 68.313 7.064
848 1 44.742 67.168 6.897
849 2 44.532 68.064 7.286
850 1 93.703 20.156 32.248
851 1 94.252 19.483 30.866
852 2 93.460 19.896 31.313
853 1 47.258 24.274 81.958
854 1 46.955 25.336 80.754
855 2 46.540 24.718 81.422
856 1 15.794 97.395 84.025
857 1 16.440 96.491 85.222
858 2 16.167 97.414 84.953
859 1 84.592 11.736 12.862
860 1 86.013 10.939 12.969
861 2 85.472 11.573 12.417
862 1 17.081 87.130 38.030
863 1 15.683 86.315 38.250
864 2 16.084 87.210 38.058
865 1 63.458 23.066 57.736
866 1 64.901 23.354 57.027
867 2 63.921 23.239 56.867
868 1 33.439 47.958 10.091
869 1 34.142 46.647 9.418
870 2 33.303 47.187 9.469
871 1 52.564 6.780 13.325
872 1 52.891 6.135 14.789
873 2 52.684 6.980 14.298
874 1 81.015 29.089 70.211
875 1 82.410 29.937 70.170
876 2 82.013 29.021 70.204
877 1 94.612 2.747 18.609
878 1 93.954 1.770 17.479
879 2 93.904 2.671 17.907
880 1 70.850 25.303 98.201
881 1 72.352 25.690 98.713
882 2 71.511 25.202 98.945
883 1 0.002 96.739 42.222
884 1 1.611 96.911 42.445
885 2 0.836 97.162 41.866
886 1 41.160 85.872 19.307
887 1 42.417 85.055 18.659
888 2 42.117 85.610 19.434
889 1 27.370 88.596 85.243
890 1 27.409 86.974 85.058
891 2 27.938 87.818 84.974
892 1 14.229 95.839 78.493
893 1 15.219 95.546 77.229
894 2 15.154 95.962 78.135
895 1 20.621 28.927 59.629
896 1 19.537 28.086 58.744
897 2 20.451 28.067 59.147
898 1 75.170 50.170 12.889
899 1 76.634 50.489 13.538
900 2 75.887 50.860 12.989
901 1 90.183 19.009 58.269
902 1 91.788 18.790 58.473
903 2 90.887 18.377 58.595
904 1 66.089 22.817 60.603
905 1 65.019 23.069 59.396
906 2 65.194 23.198 60.371
907 1 2.074 35.509 1.920
908 1 0.488 35.855 2.095
909 2 1.407 36.244 2.039
910 1 50.877 56.758 23.289
911 1 52.206 55.809 23.269
912 2 51.875 56.751 23.225
913 1 39.187 3.330 32.860
914 1 38.498 4.316 33.963
915 2 38.322 3.706 33.192
916 1 78.641 57.177 24.656
917 1 77.228 57.994 24.586
918 2 78.058 57.844 25.122
919 1 32.610 15.256 94.279
920 1 31.265 16.152 94.517
921 2 32.033 15.697 94.967
922 1 38.272 80.617 51.411
923 1 36.763 80.602 50.786
924 2 37.521 80.033 51.103
925 1 28.618 64.219 90.433
926 1 29.159 65.740 90.184
927 2 28.621 64.991 89.798
928 1 4.995 11.450 6.208
929 1 6.264 10.741 6.952
930 2 5.465 11.328 7.082
931 1 61.975 46.192 32.588
932 1 61.292 44.744 32.269
933 2 62.027 45.209 32.761
934 1 92.393 55.586 96.981
935 1 91.990 57.088 96.482
936 2 92.077 56.487 97.277
937 1 7.274 98.826 19.216
938 1 5.779 98.397 18.717
939 2 6.652 98.790 18.433
940 1 79.278 72.687 76.848
941 1 79.343 71.141 77.367
942 2 79.870 71.890 76.967
943 1 53.623 42.702 26.370
944 1 52.700 42.463 25.044
945 2 53.181 43.147 25.591
946 1 36.710 31.663 5.232
947 1 36.048 33.151 5.345
948 2 36.790 32.617 4.941
949 1 98.344 46.724 91.718
950 1 99.559 45.784 92.271
951 2 98.884 46.477 92.522
952 1 20.203 85.893 36.126
953 1 19.953 85.741 34.519
954 2 20.208 85.256 35.354
955 1 26.639 50.090 6.967
956 1 27.134 51.195 8.063
957 2 27.436 50.506 7.405
958 1 18.841 40.021 3.651
959 1 18.547 40.253 5.241
960 2 18.852 40.690 4.395
961 1 73.594 49.096 69.536
962 1 73.533 50.241 68.373
963 2 73.046 49.474 68.790
964 1 99.964 58.547 79.971
965 1 98.740 57.660 79.353
966 2 99.047 58.585 79.574
967 1 57.117 4.223 82.950
968 1 57.786 5.447 83.799
969 2 57.002 4.830 83.736
970 1 90.627 29.919 30.816
971 1 89.288 29.450 30.009
972 2 90.279 29.560 29.950
973 1 27.787 66.639 11.313
974 1 26.565 67.671 10.982
975 2 26.974 66.789 10.750
976 1 45.722 2.746 12.461
977 1 46.549 4.078 12.917
978 2 45.668 3.608 12.964
979 1 84.583 6.373 47.799
980 1 85.917 5.432 47.783
981 2 84.931 5.447 47.946
982 1 22.008 46.163 21.945
983 1 22.632 44.659 22.073
984 2 22.678 45.522 21.570
985 1 51.600 39.692 12.128
986 1 51.410 38.343 11.228
987 2 52.065 38.896 11.742
988 1 22.039 23.426 39.303
989 1 20.422 23.467 39.078
990 2 21.304 23.327 38.631
991 1 78.143 10.937 40.057
992 1 79.765 10.765 39.980
993 2 78.895 10.496 39.568
994 1 69.799 85.751 87.824
995 1 70.367 85.391 86.336
996 2 69.761 85.993 86.855
997 1 49.438 84.919 57.801
998 1 48.978 83.469 58.393
999 2 49.024 84.449 58.580
1000 1 52.718 21.772 66.385
1001 1 53.202 20.215 66.466
1002 2 53.509 21.166 66.472
1003 1 10.393 97.727 72.214
1004 1 11.075 96.427 72.929
1005 2 10.212 96.890 72.731
1006 1 68.718 41.344 49.756
1007 1 69.370 41.815 51.177
1008 2 68.714 41.197 50.745
1009 1 15.363 97.714 44.418
1010 1 16.327 96.556 45.049
1011 2 15.697 97.302 45.266
1012 1 65.865 42.217 76.171
1013 1 65.478 40.796 76.877
1014 2 65.836 41.715 77.036
1015 1 36.108 92.705 36.375
1016 1 37.524 93.518 36.373
1017 2 37.104 92.611 36.373
1018 1 30.033 49.769 8.189
1019 1 31.629 49.526 7.941
1020 2 30.894 50.204 7.925
1021 1 45.796 45.735 40.627
1022 1 45.298 44.416 39.804
1023 2 45.045 45.087 40.500
1024 1 39.307 61.652 66.357
1025 1 40.599 60.656 66.275
1026 2 40.295 61.606 66.209
1027 1 36.182 40.653 88.819
1028 1 35.070 40.094 89.875
1029 2 36.042 40.275 89.734
1030 1 1.688 83.622 59.740
1031 1 0.748 84.958 59.735
1032 2 0.746 83.958 59.727
1033 1 1.403 80.208 25.172
1034 1 1.866 78.925 26.070
1035 2 1.083 79.461 25.756
1036 1 46.965 31.914 14.137
1037 1 46.918 33.536 14.316
1038 2 46.463 32.676 14.546
1039 1 22.626 79.698 78.366
1040 1 23.056 78.556 77.281
1041 2 23.361 79.088 78.070
1042 1 93.484 8.872 1.099
1043 1 92.993 10.004 0.030
1044 2 93.380 9.854 0.939
1045 1 94.704 59.233 6.180
1046 1 93.801 57.872 6.179
1047 2 94.732 58.234 6.214
1048 1 96.084 5.431 58.053
1049 1 94.796 4.658 58.694
1050 2 95.740 4.551 58.383
1051 1 64.496 85.789 79.736
1052 1 63.419 84.641 79.305
1053 2 64.320 84.805 79.705
1054 1 60.520 58.975 65.986
1055 1 59.831 57.955 64.913
1056 2 60.216 58.035 65.832
1057 1 30.523 8.470 12.964
1058 1 28.983 7.936 13.055
1059 2 29.563 8.722 12.844
1060 1 7.763 35.386 13.893
1061 1 7.381 33.799 13.898
1062 2 7.011 34.727 13.896
1063 1 1.645 98.172 93.452
1064 1 2.709 96.950 93.656
1065 2 2.606 97.943 93.609
1066 1 90.923 60.643 41.848
1067 1 91.450 59.120 42.110
1068 2 91.732 60.069 41.977
1069 1 76.245 27.196 17.241
1070 1 74.874 26.398 16.854
1071 2 75.851 26.299 17.039
1072 1 53.769 19.435 98.740
1073 1 53.720 20.904 98.027
1074 2 54.321 20.174 98.352
1075 1 28.913 48.937 24.636
1076 1 27.940 50.248 24.653
1077 2 28.058 49.315 24.990
1078 1 31.324 59.976 20.863
1079 1 32.875 59.643 20.478
1080 2 32.086 60.216 20.262
1081 1 4.064 79.839 16.446
1082 1 3.740 80.352 14.930
1083 2 4.387 80.408 15.689
1084 1 16.208 63.790 39.874
1085 1 14.755 64.369 40.342
1086 2 15.240 63.858 39.633
1087 1 21.696 79.776 14.196
1088 1 20.770 79.418 15.492
1089 2 21.707 79.482 15.152
1090 1 61.373 75.135 3.112
1091 1 61.028 74.655 1.589
1092 2 61.659 74.544 2.357
1093 1 77.966 96.177 79.510
1094 1 77.912 94.569 79.230
1095 2 78.225 95.449 78.874
1096 1 33.241 51.808 12.240
1097 1 33.482 53.342 12.743
1098 2 32.810 52.700 12.376
1099 1 54.378 42.694 69.331
1100 1 52.850 43.270 69.307
1101 2 53.410 42.442 69.331
1102 1 30.002 50.770 11.305
1103 1 29.966 49.432 10.370
1104 2 29.407 50.116 10.837
1105 1 40.917 5.573 85.627
1106 1 40.620 4.196 84.801
1107 2 41.332 4.761 85.216
1108 1 83.210 6.331 12.704
1109 1 82.878 7.329 13.953
1110 2 82.944 7.261 12.958
1111 1 27.769 62.592 6.177